LAMMPS data file via write_data, version 29 Sep 2021, timestep = 20136

1152 atoms
5 atom types

0.031110046374331044 14.81813235854331 xlo xhi
0.034985357763226456 46.4533746255938 ylo yhi
0.03976681403052502 17.10666138545156 zlo zhi

Masses

1 58.933
2 51.996
3 55.845
4 1.008
5 54.938

Atoms # atomic

116 2 1.233500952189653 2.1010446801097538 0.7494649350615473 0 0 0
231 3 2.4810579559182284 4.105581777341583 1.4620090404744066 0 0 0
232 3 2.4836114771201605 2.0830419915168457 2.883538077761008 0 0 0
368 3 1.245727687122308 2.082934250466916 5.012384950187482 0 0 0
371 3 3.6996782910493384 2.070837314342979 5.0130330845267315 0 0 0
375 3 4.934658873871797 0.09146889668468884 4.283285465024866 0 0 0
751 5 1.2527140022546908 0.19157367854094567 2.126543602237013 0 0 0
753 5 1.2666645125018643 4.057731228805475 3.5355306111228866 0 0 0
755 5 3.7356969575536834 2.047503029937081 0.7421041849382101 0 0 0
756 5 3.696571922267598 0.2353855275093418 2.143752852317741 0 0 0
757 5 3.6966581812184978 4.046579132712779 3.6339677806285517 0 0 0
845 5 2.4721631580099293 0.1789593065815929 4.2693266126742 0 0 0
235 3 4.947316784441711 2.0448472058397904 2.897212433866786 0 0 0
145 2 0.043627299197319815 4.107077974403813 5.6909813142502905 0 0 0
233 3 4.902499119120654 0.09507125305228965 0.054916074777747376 0 0 0
117 2 4.968564409235026 4.145486713477634 1.4909002461666174 0 0 0
2 1 8.658381650644856 4.073987493235192 3.5899981457044206 0 0 0
118 2 6.254917528652189 4.1082825503193 3.6645045986655234 0 0 0
120 2 8.67486424612297 2.0152867882876166 0.7439536450078856 0 0 0
234 3 6.166307014558895 0.12015581158219527 2.1713725796606416 0 0 0
236 3 8.644890818188115 0.12576057916882472 2.1960532474658816 0 0 0
237 3 7.418363421308734 4.038244929764083 1.4725558581744695 0 0 0
378 3 7.417509993249454 0.1121251132510696 4.31282810479678 0 0 0
758 5 6.145529178411337 2.0209211065908788 0.7522352348999148 0 0 0
759 5 7.39977236356377 1.9978157546384598 2.8865180756704656 0 0 0
760 5 9.879105326046542 4.1261954876061955 1.4728484536998707 0 0 0
846 5 6.157318275794714 1.9994204047345012 5.055815685349619 0 0 0
849 5 8.624674855238917 2.0610651609108386 5.023391335655182 0 0 0
851 5 9.867851418958203 0.22473968256744922 4.326407247984608 0 0 0
119 2 7.40093440634089 0.08003260872683127 0.04336491822771318 0 0 0
1 1 14.794213953834184 4.1025155785098635 1.4527970381012127 -1 0 0
144 2 14.749903928004697 0.14336366678465698 4.3300405024418955 -1 0 0
761 5 9.89926961367628 2.0640038981131257 2.907280570817477 0 0 0
3 1 12.351412228447217 2.0969826739415036 2.8890385928399533 0 0 0
31 1 12.339702206663462 0.14259446616407043 4.307649775520205 0 0 0
239 3 11.100170375905199 2.066621998783456 0.7457733328785697 0 0 0
240 3 11.09553052327898 0.15063730792211652 2.1982658744347274 0 0 0
241 3 11.111019656511743 4.086917017067028 3.6072430611755277 0 0 0
243 3 13.606516341427177 0.13534195276931052 2.1546840991985015 0 0 0
244 3 12.320662410531538 4.0939953663142665 1.4295502070664747 0 0 0
382 3 11.125877001178981 2.096134390191324 5.040889952893141 0 0 0
383 3 13.560514417630301 2.060112555366915 5.035538479493886 0 0 0
384 3 12.35223826893586 4.092993566577585 5.722905056435637 0 0 0
752 5 14.802005679088024 2.065076496303331 2.9169094493247396 -1 0 0
762 5 13.54789849009154 2.0343110239171502 0.7765308447925708 0 0 0
763 5 13.5811692447803 4.09144903918701 3.5650413849746343 0 0 0
238 3 9.89344034994444 0.10662526450359792 0.041779532535526985 0 0 0
242 3 12.38572160070454 0.12155120127280103 0.049714392123424295 0 0 0
750 5 14.816399551624686 0.26479886968741 0.043118976221347506 -1 0 0
122 2 3.737728076015926 8.155375530214265 0.7454054720960668 0 0 0
123 2 3.657757870162598 6.1622044062192485 2.168610114874971 0 0 0
146 2 2.3730352278389244 6.112891251036516 4.387063539427989 0 0 0
245 3 1.2280653946277007 6.091178727084652 2.1555150370000704 0 0 0
247 3 2.4951328173814242 10.155363905960067 1.4639577103321717 0 0 0
248 3 3.7260227184922075 10.148902973914756 3.583360855146747 0 0 0
385 3 1.2348910240166668 8.132374972174505 5.0322920443414905 0 0 0
765 5 1.2965480602279582 8.116520100175622 0.7830139879330789 0 0 0
767 5 1.2914416056927611 10.14848226876412 3.6303449688703116 0 0 0
768 5 2.459855101796209 8.179735782802432 2.920634213797076 0 0 0
861 5 3.7538426004437038 8.183814577251805 4.981477138299292 0 0 0
148 2 4.939048813669706 6.13211341984389 4.292330763691422 0 0 0
121 2 0.07028213906542598 10.16292015840429 1.4775348255936573 0 0 0
386 3 2.497023910413911 10.148129246981577 5.721764126982113 0 0 0
251 3 4.967866634558096 10.150457302554459 1.430957434628706 0 0 0
252 3 4.974621016037737 8.170136826056533 2.874085499214202 0 0 0
35 1 7.4396348817914255 6.100826916418659 4.291542216631656 0 0 0
250 3 6.206385501636042 8.121100377681534 0.7669826274300687 0 0 0
253 3 7.428615070010304 10.112524154241203 1.4152114826662787 0 0 0
254 3 7.417676320622136 8.112705956767318 2.8554917103518354 0 0 0
255 3 8.633253955845168 10.134745473548852 3.5582121913358207 0 0 0
258 3 9.879467639549729 8.131073263142065 2.8689078452585837 0 0 0
388 3 8.624198355558116 8.141538028090483 4.994360794548516 0 0 0
390 3 7.414442132321846 10.151646702837077 5.714818589619813 0 0 0
769 5 6.219258069312341 6.18705436075171 2.136725377085088 0 0 0
771 5 8.649450706353798 8.115722118891354 0.7518920000301816 0 0 0
772 5 8.623174760889752 6.084374275306379 2.14864845953177 0 0 0
864 5 6.218476448216026 8.147751551535652 5.0002197976767295 0 0 0
151 2 9.886269602592 6.131687961743961 4.323219659054556 0 0 0
152 2 9.849566973696525 10.180207884882869 5.696186537257828 0 0 0
257 3 9.869069732745109 10.15046396171549 1.423029089718774 0 0 0
124 2 6.1849887960222985 10.144047979580154 3.577274941402173 0 0 0
770 5 7.378479678739761 6.033349596628137 0.045663053806207485 0 0 0
766 5 14.811979336105551 8.079245531247274 2.8925572676281774 -1 0 0
858 5 14.786176673968757 6.121574132844965 4.308534271491421 -1 0 0
4 1 11.10720962065226 6.106267181831175 2.1550109460824682 0 0 0
5 1 12.353017500070152 8.113690587220878 2.869761959216136 0 0 0
125 2 11.092512794699962 10.120150970506037 3.52549761666933 0 0 0
259 3 13.568969482880888 6.112477546788013 2.1541410138156936 0 0 0
394 3 12.352568564612486 6.105662265288009 4.3038558349396325 0 0 0
773 5 11.110992411962123 8.140255804111883 0.7486177563767231 0 0 0
775 5 13.585945773273611 8.113162004876921 0.7653586521144582 0 0 0
776 5 12.337158481839865 10.138942611839305 1.437437936630218 0 0 0
777 5 13.60112127513639 10.129949801940715 3.604354977076867 0 0 0
867 5 11.151268485818512 8.109313233845345 4.9991043315582235 0 0 0
868 5 13.570298262794452 8.10367183691557 4.992867161362222 0 0 0
764 5 14.817403411384548 6.124676341517234 0.06444648700019424 -1 0 0
774 5 12.324451584580581 6.149471675407628 0.04209117084673848 0 0 0
6 1 3.7272792402177153 12.175081655909345 2.1643369088079645 0 0 0
261 3 1.2470548350324766 14.168364287324748 0.7330657386749789 0 0 0
262 3 1.2597050267993373 12.169920490449451 2.18293644340745 0 0 0
396 3 0.036077033397987346 12.138237651335233 4.306735339857714 0 0 0
397 3 1.271319289070438 14.170129660954386 5.025929427926102 0 0 0
399 3 2.505789455876108 12.161761349939638 4.295648349156788 0 0 0
400 3 3.7238337450092707 14.178349975902455 5.020945845710812 0 0 0
780 5 3.707392229726696 14.154552147928777 0.7278579233946343 0 0 0
781 5 2.477167893656079 14.184713560774243 2.8776815212250604 0 0 0
264 3 2.489941878510313 12.148798383982399 0.048583567345977206 0 0 0
39 1 4.962518937485507 12.15752120407601 4.308305099689256 0 0 0
126 2 4.98566124524062 14.154981196378882 2.912504061605 0 0 0
267 3 6.197876238689359 12.165522513667014 2.135594900617274 0 0 0
270 3 8.654855207217185 12.1547294936859 2.1551924089921544 0 0 0
271 3 7.444790772837683 14.180873527777868 2.8763591663981334 0 0 0
402 3 6.196653747618138 14.174258933609789 5.0073535310162764 0 0 0
406 3 7.435837954590538 12.15629627598533 4.299275376380344 0 0 0
407 3 8.654595449239249 14.189362541012596 5.016059257105993 0 0 0
782 5 6.21128843684859 14.134440997863049 0.7056884202166649 0 0 0
784 5 8.674842446009734 14.15798331552529 0.7109118953450351 0 0 0
411 3 9.870497338767644 12.176191614363566 4.282099342435678 0 0 0
273 3 9.886774208327584 14.168821141988383 2.8724705732932234 0 0 0
779 5 14.794148564040555 14.16341454008274 2.8759577971875814 -1 0 0
8 1 11.123122398377934 12.15235469131227 2.154659912450405 0 0 0
10 1 13.582498196239914 12.149555306354806 2.1623757092001723 0 0 0
11 1 12.345692390337348 14.171447289296513 2.8765563157195824 0 0 0
274 3 13.576225433087204 14.173289971029961 0.7386057557540474 0 0 0
786 5 11.118905116398215 14.169429258440983 0.7537973913208699 0 0 0
876 5 11.095688919138565 14.174401984195615 5.024438204986362 0 0 0
879 5 12.34481393666452 12.169488000416958 4.288640932480979 0 0 0
880 5 13.579833788669424 14.154125146031825 5.024123753241635 0 0 0
37 1 2.493841941712836 16.18001774103449 5.726691658003003 0 0 0
40 1 3.723654523364281 20.218713930840064 5.0249765504559685 0 0 0
129 2 3.6946656557866575 18.192742922351357 2.1333855383487474 0 0 0
263 3 1.268872910271673 16.18414926388045 3.591239602471486 0 0 0
265 3 2.487162784772928 16.156092210157222 1.4440125900224146 0 0 0
266 3 3.713214211803861 16.18123514871153 3.5888076883133424 0 0 0
276 3 1.251915497947579 18.187233067761785 2.154892018318121 0 0 0
279 3 3.739792679655531 20.203317963332587 0.7352389409000673 0 0 0
280 3 2.5103915115671787 20.202343588685427 2.906453197010862 0 0 0
418 3 1.2714599317350468 20.217697423515357 5.026008027269344 0 0 0
778 5 0.032353234787531056 16.180154914219653 1.4547693607949845 0 0 0
789 5 1.3058427622076367 20.156178631942975 0.7369470305519611 0 0 0
791 5 4.951970459795234 20.223739939782906 2.9068885825701374 0 0 0
884 5 2.450108630385519 18.200028758948687 4.320386899073068 0 0 0
887 5 4.943441484903457 18.213253920200422 4.323499745065586 0 0 0
783 5 4.941692749039629 16.155343301303276 1.4581285989650195 0 0 0
128 2 0.09187085140310598 20.24414234465588 2.855635170355875 0 0 0
871 5 0.034599186621588646 16.1895074627149 5.7137530591851124 0 0 0
14 1 7.424353986808011 18.199279998125906 0.05354650943468475 0 0 0
127 2 7.420200668406605 16.218398085055085 1.4876857162805577 0 0 0
155 2 7.399276590716659 18.177872876225415 4.3054157733390115 0 0 0
268 3 6.181422252012848 16.173594290518725 3.5935237213536113 0 0 0
283 3 6.190207634773406 20.201809562287764 0.7734101570466829 0 0 0
284 3 6.181064143978174 18.19902794783396 2.173889896275669 0 0 0
286 3 8.659925922180097 20.22591183324934 0.768701399059557 0 0 0
287 3 8.660175230596561 18.201174636518864 2.186365094946501 0 0 0
422 3 6.177595260989778 20.204487819283358 5.03678523479468 0 0 0
785 5 8.669480388713016 16.161683111629976 3.6060828110493794 0 0 0
793 5 7.434905995989888 20.218517547843884 2.8713555032401024 0 0 0
874 5 4.962615800368772 16.17857535499104 5.704594532548009 0 0 0
890 5 8.647323025025873 20.254965998854445 5.005803643689421 0 0 0
9 1 9.88653315666748 16.189889208705264 1.4551197779478093 0 0 0
794 5 9.844717221155253 18.214268587838195 0.06316278433402021 0 0 0
417 3 14.790588070463524 18.188014545573562 4.3016418687120375 -1 0 0
290 3 9.893429497198033 20.223628005195376 2.904464632946429 0 0 0
427 3 9.89489928163549 18.215593524775237 4.309592181097949 0 0 0
12 1 13.584664738999212 16.17691125043742 3.5958555752780903 0 0 0
15 1 11.11853844405027 18.198927401486944 2.168700177764473 0 0 0
156 2 13.566473960851814 20.195195621566796 5.061306082478902 0 0 0
275 3 12.347271005605002 16.176980102026448 1.4593954439545755 0 0 0
289 3 11.127145232532001 20.218857972277725 0.7327594119178806 0 0 0
292 3 12.371171480092539 20.204012674517717 2.8817879277319127 0 0 0
428 3 11.114333411186747 20.219544017389076 5.014962460708905 0 0 0
432 3 12.342856366230004 18.18648431847484 4.302862821608973 0 0 0
787 5 11.12165300296923 16.17981448955224 3.5686136674517246 0 0 0
796 5 13.593384576845814 20.223378809772385 0.7369846799102476 0 0 0
797 5 13.561226375250563 18.183209894929487 2.167158396656019 0 0 0
881 5 12.354833893184933 16.191137155313722 5.725875198539926 0 0 0
795 5 12.381635248328024 18.231401317938335 0.05813166421632242 0 0 0
130 2 2.540046352867795 22.182576742175556 1.5431741549062297 0 0 0
277 3 1.2705187458648157 22.2352236194737 3.6167687000456743 0 0 0
281 3 3.727389983769106 22.214913065555283 3.64231493543982 0 0 0
294 3 1.258525874995575 24.240775740350802 2.155642160992435 0 0 0
296 3 3.747113589532316 24.219679872239425 2.1790166130709445 0 0 0
897 5 2.4899513753778972 24.238021260461743 4.3100777270560995 0 0 0
894 5 0.03661230915606469 24.24824609421118 4.2911568251729495 0 0 0
157 2 4.9574839246841504 24.297609597514047 4.2984655009825214 0 0 0
883 5 0.04204515445493744 22.245682155427907 5.7267676609068605 0 0 0
298 3 4.975269137429991 24.238362689018995 0.05965289006028868 0 0 0
17 1 6.205404015735556 24.245577669652494 2.1619336783063487 0 0 0
131 2 6.229607504422035 22.226896169716106 3.584220244900336 0 0 0
285 3 4.981141759541607 22.22138468523178 1.466623913569253 0 0 0
288 3 8.682683922813258 22.23230645971886 3.58639735707177 0 0 0
792 5 7.4417823021413065 22.219881595355925 1.425049741801595 0 0 0
808 5 8.65523797403647 24.22058609915622 2.152954971567068 0 0 0
903 5 7.456959584301552 24.282756136575397 4.296838621274116 0 0 0
16 1 9.886724951526842 22.241416676621842 1.4554146039049194 0 0 0
425 3 7.429417364165885 22.243407422063033 5.717628920085667 0 0 0
790 5 14.803901613400951 22.26559315708633 1.4641975050905702 -1 0 0
904 5 9.904940645868491 24.240385245689872 4.300652139925669 0 0 0
291 3 11.143364518249136 22.237557211285374 3.5920078987243205 0 0 0
293 3 13.590854782145767 22.242264657475527 3.5967283468500084 0 0 0
304 3 11.128087121199133 24.250961469106745 2.162684700045155 0 0 0
307 3 13.6056300013368 24.24099884945573 2.172972262451127 0 0 0
798 5 12.395098637183759 22.219994012256684 1.4751034965247847 0 0 0
907 5 12.358815779695133 24.227197191713625 4.296240852718125 0 0 0
430 3 9.89335332892675 22.241528309486092 5.714491248237449 0 0 0
434 3 12.346580373381444 22.236029475334988 5.724036523716421 0 0 0
810 5 12.356883203232512 24.25929735365616 0.045763156222631725 0 0 0
43 1 1.270713663939896 26.243554903230887 5.0396317544239375 0 0 0
44 1 3.7442730061208445 26.254289755936284 5.027962062351911 0 0 0
132 2 1.2289127942084395 28.251571049410135 3.63842030147666 0 0 0
297 3 3.722896649071938 28.254353810560996 3.583158813195543 0 0 0
311 3 1.2554557356466038 30.28212897481637 2.180366578368893 0 0 0
312 3 3.7226891217455362 30.269827936293083 2.1832704822329165 0 0 0
800 5 1.230330731306683 26.29319794682133 0.7824340114005711 0 0 0
802 5 3.7397399225505854 26.28047265993166 0.7835878465748856 0 0 0
803 5 2.505198809275574 28.268010182867545 1.4692627155695 0 0 0
804 5 2.520751115584544 26.20455341382167 2.9033901270606335 0 0 0
912 5 2.4890737081532435 30.265073725030806 4.303236806907088 0 0 0
21 1 2.4911500825343307 30.279480815536036 0.059534538280618596 0 0 0
295 3 0.03411353409090112 26.25006443664602 2.8897214816812538 0 0 0
452 3 4.986266352928747 30.281240833869578 4.298479260775232 0 0 0
45 1 6.19958346493122 26.29330486326943 5.018808740642302 0 0 0
49 1 7.440207612586965 30.278440454681185 4.308159771733496 0 0 0
134 2 6.221907412698854 28.288561537108933 3.5185997915042373 0 0 0
299 3 6.195781225579292 26.265995424563204 0.760170108662628 0 0 0
300 3 4.966527751528912 28.277496171548503 1.4402799167199294 0 0 0
301 3 7.431888467740841 28.275801238474855 1.4267071620795404 0 0 0
302 3 7.43363025345734 26.248817391266357 2.8771767540569866 0 0 0
303 3 8.678012408635619 28.26813812848209 3.5789631793692194 0 0 0
317 3 6.197924824573607 30.29928848837207 2.1568766959484105 0 0 0
440 3 8.669036230814601 26.254325260111717 5.007589203758301 0 0 0
805 5 4.964424321358931 26.2593733815355 2.8696534901740938 0 0 0
807 5 8.65818684144764 26.278479306318015 0.7207519463693566 0 0 0
818 5 8.639130148897554 30.246081585020907 2.157720309924819 0 0 0
918 5 9.875770468379493 30.278458285058445 4.312709907343989 0 0 0
320 3 7.428825190590674 30.305911293298344 0.04621228144330878 0 0 0
323 3 9.884566655491618 30.315365723441403 0.0507912550675451 0 0 0
305 3 9.892866465456564 28.285527394715174 1.4512708603315487 0 0 0
809 5 9.899390175286184 26.271309831069704 2.8906140733207826 0 0 0
19 1 11.11340758870742 26.259515405906278 0.7434471655025716 0 0 0
20 1 11.11695668965823 28.270617215579815 3.593219165543448 0 0 0
23 1 11.11966240575643 30.29661098877186 2.1748357593278422 0 0 0
306 3 13.577221874230931 26.261844095778198 0.7682450620117062 0 0 0
308 3 13.56180660044309 28.280483145349944 3.610614230184769 0 0 0
443 3 11.136961672230901 26.26894687904035 5.016077587926136 0 0 0
445 3 12.366530046408258 28.289130821604438 5.725625068532183 0 0 0
446 3 14.803235423473067 30.295586337015056 4.3173017009533075 -1 0 0
460 3 12.352889593838622 30.29836967637196 4.304554989651477 0 0 0
801 5 14.798489617520268 28.277349326622524 1.4700882621979736 -1 0 0
811 5 12.330215303628782 28.264429061042925 1.4653371989292399 0 0 0
812 5 12.356109037444444 26.254185455418707 2.873063874477287 0 0 0
821 5 13.586859524714626 30.29537864791775 2.176879321216607 0 0 0
908 5 13.603642382337602 26.27184940086693 5.028174085420241 0 0 0
444 3 9.913294296072477 28.269493777361124 5.722701614538553 0 0 0
309 3 14.808251295527706 30.296975615579772 0.04733551076224894 -1 0 0
326 3 12.357503811483637 30.288779838906066 0.04277705845669412 0 0 0
22 1 3.738854695739202 32.30485200225015 0.7617816399583988 0 0 0
162 2 3.6994796304461226 32.28049408762957 5.028154206940181 0 0 0
310 3 1.2623673507204933 32.28390783561456 0.7492311764859019 0 0 0
313 3 2.500055541449179 34.30035344625839 1.4767944152809576 0 0 0
314 3 2.4860380206794197 32.30803666131901 2.881762674739544 0 0 0
315 3 3.7298231495708736 34.322615062708 3.594783339659063 0 0 0
447 3 1.2443573299436255 32.30841019644855 5.018623981498594 0 0 0
815 5 1.2789378962011855 34.31702891598819 3.6163313272210935 0 0 0
318 3 4.954824839897152 32.31430709925618 2.896595935345069 0 0 0
814 5 0.05351161090098207 32.28725211375263 2.8938964204766466 0 0 0
817 5 5.003104429367375 34.31003684475773 1.5000647110788918 0 0 0
135 2 7.377596934861508 32.29111104431661 2.882004137652451 0 0 0
136 2 8.66112474375537 34.39475385127682 3.621322939916134 0 0 0
164 2 5.003537085564701 34.358260325707285 5.688485487897119 0 0 0
319 3 6.1935292764298016 34.335279118335784 3.589783072174862 0 0 0
321 3 8.650286499882839 32.31883847828968 0.7435391134199381 0 0 0
322 3 7.443372879216994 34.32376816022119 1.467094245030844 0 0 0
816 5 6.185316525101685 32.31682171035669 0.709960710626258 0 0 0
819 5 9.871128052302607 34.352265470508115 1.4331378166635516 0 0 0
913 5 6.233077966512905 32.289656785572895 5.01706501725437 0 0 0
915 5 8.667899707743233 32.27393284163214 5.081435291929589 0 0 0
813 5 14.798023332064687 34.299632135568345 1.469895138928848 -1 0 0
137 2 9.93683655574947 32.302847853996994 2.875169516503813 0 0 0
324 3 11.12093033038344 32.31016443974955 0.7420911908730532 0 0 0
325 3 11.144451108426356 34.34012905271898 3.605789897311033 0 0 0
327 3 12.3375075691881 34.30859428475585 1.4634181897530036 0 0 0
328 3 12.352813508950995 32.30383778744549 2.8738685091842355 0 0 0
329 3 13.593631022014963 34.32261376993951 3.591938653864283 0 0 0
448 3 14.817890959676058 34.34144912008719 5.723506139861015 -1 0 0
457 3 11.12689626737153 32.328565188771165 5.039672818432552 0 0 0
820 5 13.5912110799241 32.32014374420046 0.7341171077374096 0 0 0
921 5 13.562696683796602 32.31319205601627 4.984394733371702 0 0 0
50 1 12.36389039318641 34.32611103287379 5.723849314022767 0 0 0
165 2 1.3016449189855768 38.32004666903357 5.05400085068605 0 0 0
331 3 1.270306669575932 38.341099979886096 0.7458312243840755 0 0 0
333 3 2.504615114320783 36.34923099571391 0.05330130750422339 0 0 0
334 3 2.513340437313362 38.336948039090046 2.8878124801941847 0 0 0
463 3 0.0374238921923552 36.33929738338071 4.285419653857459 0 0 0
467 3 3.7434485818884 38.35897242194771 5.022627859847631 0 0 0
822 5 1.2933738097267433 36.311539423956866 2.15130747322961 0 0 0
823 5 1.2603470107931145 40.366280725197946 3.6284239227048567 0 0 0
824 5 3.7429416872807475 38.34702223108221 0.7538231721378351 0 0 0
825 5 3.732068023071095 36.31540755752821 2.1751049461087493 0 0 0
826 5 2.5194425984523603 40.32641202093988 1.4841388453779658 0 0 0
827 5 3.7193138702491297 40.35347991682423 3.6173611443051503 0 0 0
829 5 4.955677105186362 38.34939684562058 2.8962389686350694 0 0 0
924 5 2.5262942202266094 36.29769095090283 4.295948459434505 0 0 0
332 3 0.03414523027864668 40.37628135597628 1.4557479738490282 0 0 0
923 5 0.035156152397827316 40.36442786773282 5.716376735356631 0 0 0
335 3 4.975103363998516 36.35228678212973 0.045746385092301174 0 0 0
469 3 4.964492293140296 36.3475189048671 4.30424821926219 0 0 0
24 1 8.659264903555714 36.36678592121374 2.173526884474262 0 0 0
25 1 7.437668813592714 40.39110405457323 1.4928655059310258 0 0 0
140 2 8.704837092782437 38.43133562586936 0.7522667045285863 0 0 0
336 3 6.204336993398079 38.37964164135825 0.7698255474636366 0 0 0
337 3 6.20513212699457 36.333501986922215 2.1992754155509497 0 0 0
338 3 6.202212847103235 40.3639722160399 3.6017542352454015 0 0 0
339 3 8.680584302224206 40.353271029520485 3.605204446475168 0 0 0
470 3 6.184027851596577 38.36528110959961 5.027027958294604 0 0 0
473 3 8.679246983296713 38.36874768590915 5.035079315800418 0 0 0
828 5 4.996259751435573 40.390502195917094 1.4896965888835805 0 0 0
830 5 7.425923492969963 38.37404846777111 2.909006130159076 0 0 0
928 5 7.406867750000532 36.37148155885119 4.330466015292759 0 0 0
139 2 7.407367049803753 36.31052048310642 0.07422006260131797 0 0 0
138 2 14.787035797099387 38.38839732402167 2.8445233676771413 -1 0 0
343 3 9.915022852806613 40.38819812597233 1.4901656285262965 0 0 0
344 3 9.914402725038943 38.3496573478233 2.9101447670253346 0 0 0
476 3 9.892308337233686 36.367871573697464 4.304538166164208 0 0 0
141 2 12.39863677864774 40.34517967445196 1.4715168575087856 0 0 0
341 3 11.142983055114918 38.350480365690466 0.7742962396441236 0 0 0
342 3 11.103174747033432 36.3548952443081 2.1926215983310366 0 0 0
345 3 13.583687829479118 38.3292217109473 0.7143132611234149 0 0 0
346 3 13.597691264732864 40.37954222442848 3.6317824755681625 0 0 0
480 3 13.581935534627002 38.36451417318888 5.03168116870195 0 0 0
831 5 11.10824669347104 40.38489126901236 3.6448664052519604 0 0 0
833 5 13.582829920948047 36.30621939052389 2.1568196252498004 0 0 0
834 5 12.332070889259294 38.33502560504715 2.8977718107877566 0 0 0
931 5 11.125413714183832 38.38472963285774 5.034041455777221 0 0 0
932 5 12.385152192348178 36.33535567489575 4.27445500434286 0 0 0
482 3 12.355201960512666 40.358564817657175 5.726041461478182 0 0 0
832 5 12.336881675005344 36.33148164833446 0.04463508744707212 0 0 0
330 3 14.817635691911846 36.347556563623854 0.0623251717935212 -1 0 0
55 1 1.2717312271386012 44.40574975466078 5.001582372742367 0 0 0
142 2 1.2549578184629644 42.35914516587144 2.1596387114916613 0 0 0
347 3 0.03812895908206199 42.392586352360446 0.04743537824579044 0 0 0
349 3 2.499452313294267 42.4184645585927 0.049341127588824175 0 0 0
350 3 3.72689026127995 44.41930935052044 0.7448747810364673 0 0 0
351 3 3.729667545833752 42.3704971611661 2.1636289652244067 0 0 0
352 3 2.5132385096743057 46.41554020135543 1.469652291223429 0 0 0
353 3 2.4981501037484732 44.41648835264119 2.871813924465272 0 0 0
354 3 3.919844667445298 46.43150377968937 3.621193807631603 0 0 0
485 3 3.7221342428326887 44.36887033164939 5.032002714991122 0 0 0
835 5 1.2819596585006872 44.50871435398364 0.7487772018209843 0 0 0
836 5 0.06055100780167363 44.44143514197239 2.928193868217575 0 0 0
837 5 1.2907460874506185 46.30758938714387 3.5604772375907325 0 0 0
934 5 2.4714936660503635 42.363465565183596 4.311677177257326 0 0 0
936 5 2.5703304618115053 46.307894482481785 5.689055369603395 0 0 0
937 5 4.927504686537212 42.337359888118804 4.312623243442131 0 0 0
933 5 0.03409971443359719 46.33639299561538 5.694122604577466 0 0 0
838 5 5.006822256589798 46.28767948356265 1.5809881784021989 0 0 0
357 3 4.994334584382077 44.391100771736184 2.901752097098836 0 0 0
26 1 6.19633009863975 44.36446345964089 0.7347091252606031 0 0 0
27 1 8.664641102548767 44.40852098527717 0.7609436829972511 0 0 0
168 2 7.4523771425610255 42.35452422963498 4.310954356762815 0 0 0
356 3 6.184039556655255 42.35396445175575 2.175467887506277 0 0 0
358 3 8.672294481985979 42.366456591689406 2.1817899788049147 0 0 0
359 3 7.298941102507062 46.44852488333261 1.6363813216170995 0 0 0
360 3 7.403973973169521 44.42258158274103 2.9086909827377183 0 0 0
361 3 8.465164090366923 46.41093026389897 3.6122402662409496 0 0 0
487 3 6.196803897016641 44.38962541593818 4.986715313911601 0 0 0
839 5 6.18608739984044 46.1387301296268 3.6181511297985844 0 0 0
940 5 8.68274512545292 44.45777638155518 5.011495400463385 0 0 0
28 1 9.862319061557878 44.392899996812204 2.912184094004135 0 0 0
490 3 7.2966080852215125 46.39666498672246 5.617896470145991 0 0 0
938 5 5.018893135390525 46.21393085346786 5.650448964724031 0 0 0
942 5 9.876666582492366 46.34055159726426 5.7005041127320855 0 0 0
29 1 13.596081195344045 42.37475460938602 2.199991212112461 0 0 0
54 1 14.815135033010705 42.386821553210176 4.309475712539796 -1 0 0
59 1 12.353262049677676 42.38591204306009 4.3195956706961285 0 0 0
60 1 13.598887193955317 44.41482345604533 5.019932176653107 0 0 0
348 3 14.691631725290382 46.39193080584366 1.4557321377261208 -1 0 0
362 3 11.155323130002992 44.412419157233025 0.7760180108617979 0 0 0
363 3 10.123984239695869 46.41309671335091 1.4690424542393568 0 0 0
364 3 11.259121552550646 46.404782475975985 3.441486656632658 0 0 0
366 3 12.375226250499981 44.41083338920763 2.865767921229911 0 0 0
367 3 13.540824540904241 46.38317651699312 3.432810235859383 0 0 0
492 3 9.898870907891775 42.38662900662153 4.336369043150989 0 0 0
493 3 11.118141467205996 44.420944230640615 5.032801462277328 0 0 0
841 5 11.120393743592752 42.41712483790419 2.199992701368349 0 0 0
842 5 13.586252785196075 44.40801390580067 0.7809193515228416 0 0 0
843 5 12.387590892907514 46.11951080913249 1.466152462107698 0 0 0
840 5 9.930637335390525 42.37576741391564 0.044352491911793836 0 0 0
30 1 2.455793167687904 2.0424110070343584 7.1601831689965865 0 0 0
170 2 1.26250490016388 2.0216838833745716 9.300095102628383 0 0 0
171 2 1.269155062677082 0.08093809843217316 10.761863080841955 0 0 0
369 3 1.2171034781425885 0.112309282942078 6.431941267684354 0 0 0
370 3 1.2387431582347206 4.063638236780073 7.8631212788205715 0 0 0
372 3 3.7003643384665517 0.06896129039809434 6.437209685651446 0 0 0
373 3 2.4948087871927505 4.083183536512455 5.744027881775271 0 0 0
374 3 3.7287810439538456 4.041816470968957 7.8743336773123085 0 0 0
377 3 4.936336080606139 4.046952224396312 5.761823564464722 0 0 0
499 3 3.721176615675043 2.0364295055304584 9.288686019446956 0 0 0
500 3 3.7229448256537574 0.11782163331530461 10.712079067193343 0 0 0
501 3 2.5065610610864186 4.064713604262656 10.012268228144018 0 0 0
948 5 2.4835295003430846 0.1271740286350298 8.580485303876856 0 0 0
503 3 4.919301327614302 4.084217386906571 10.006656412149383 0 0 0
847 5 4.903198529341464 1.984217808633242 7.148373889974773 0 0 0
504 3 4.94392727796192 2.0688915162343657 11.413664154696297 0 0 0
502 3 4.942301584130698 0.05910713039178308 8.576018001908256 0 0 0
379 3 7.421345152209126 4.061143156604972 5.740008916112128 0 0 0
172 2 6.163270704018268 1.9929384915903978 9.29904306273195 0 0 0
376 3 6.175726010728083 0.09208174866412498 6.4573295759188385 0 0 0
380 3 7.402168694257802 2.0587742032924874 7.154520114617397 0 0 0
381 3 8.615381609477005 4.07038084274299 7.865266125991709 0 0 0
506 3 8.65803573232417 2.059623510929043 9.279654023964527 0 0 0
507 3 8.633152435866185 0.12862164214409966 10.701561741930682 0 0 0
848 5 6.170810863086303 4.085592757792371 7.856424398183772 0 0 0
850 5 8.639019307968491 0.20851735395559293 6.448622280945013 0 0 0
949 5 6.179488892232175 0.14479882181500936 10.719502216982905 0 0 0
950 5 7.417706534683708 0.1576314566741119 8.568477571969238 0 0 0
951 5 7.4018565753105054 4.116994725228498 10.005323455516903 0 0 0
173 2 9.886469926726232 4.072755231402469 9.9917128829521 0 0 0
509 3 9.875218745517916 0.10839505482975692 8.573829636841378 0 0 0
854 5 9.88255302634241 2.0456829378375163 7.19893793534577 0 0 0
853 5 9.898260817287655 4.0601057936282015 5.742436225524116 0 0 0
945 5 14.797801963420168 0.1434528696522087 8.560907437320061 -1 0 0
844 5 14.782158744969832 1.9799135165475013 7.122822954184173 -1 0 0
946 5 14.79754180824124 4.120287970645521 10.003109691447095 -1 0 0
32 1 13.563057607521644 0.10343322048317939 6.435003886609816 0 0 0
174 2 12.352138797458947 0.15651435245547535 8.568206314962682 0 0 0
510 3 11.13012271870748 2.092241941847803 9.276374377969526 0 0 0
511 3 13.599063058026427 2.080869126571782 9.296312634074539 0 0 0
512 3 13.594539038014052 0.16921346031600024 10.73003082328528 0 0 0
513 3 12.360104148914349 4.063755506389531 9.990540383747295 0 0 0
852 5 11.105364138495329 0.1962024390766919 6.426427967066239 0 0 0
855 5 11.145308923881998 4.096463066476163 7.840205817634095 0 0 0
856 5 12.380804087360893 2.0687738726473643 7.1377033855767404 0 0 0
857 5 13.58221539825472 4.070221315976525 7.887579763438029 0 0 0
953 5 11.130483322961243 0.21322044716500055 10.732772287982058 0 0 0
514 3 12.3887984656416 2.080586465723554 11.409969508975067 0 0 0
498 3 14.805031936450726 2.081787310628874 11.40809894518937 -1 0 0
33 1 1.2133498992367826 6.094131832762967 6.467760363736899 0 0 0
34 1 1.2663707785458327 10.139125497020851 7.865810917799608 0 0 0
147 2 2.4871066662926684 8.112700581946317 7.110271165968274 0 0 0