LAMMPS data file via write_data, version 27 May 2021, timestep = 19

257 atoms
2 atom types

0 14.16 xlo xhi
0 14.16 ylo yhi
0 14.16 zlo zhi

Masses

1 26.982
2 1.008

Atoms # atomic

1 1 0.35463764088838895 0.35336235911161135 0.3499609490410322 0 0 0
2 1 2.125227613101068 2.1231887040805715 0.3531887040805719 0 0 0
3 1 2.1213075774861156 0.3562941529897839 2.1230221259968203 0 0 0
4 1 0.34889334256828386 2.1316122418654464 2.116387758134554 0 0 0
5 1 3.8943081327353424 0.3538054966001382 0.35393595206571143 0 0 0
8 1 3.893943762210129 2.124091416845047 2.123908583154953 0 0 0
6 1 5.664056237789871 2.1240914168450464 0.35409141684504636 0 0 0
7 1 5.6636918672646575 0.35380549660013816 2.1240640479342887 0 0 0
9 1 0.3488933425682846 3.8863877581345543 0.3616122418654466 0 0 0
11 1 2.125227613101068 3.894811295919429 2.1248112959194287 0 0 0
13 1 3.893943762210129 3.8939085831549534 0.35409141684504664 0 0 0
15 1 5.664056237789871 3.8939085831549534 2.123908583154954 0 0 0
10 1 2.1213075774861156 5.661705847010217 0.35497787400317965 0 0 0
12 1 0.35463764088838845 5.6646376408883885 2.128039050958968 0 0 0
16 1 3.8943081327353424 5.6641945033998615 2.1240640479342887 0 0 0
14 1 5.6636918672646575 5.6641945033998615 0.35393595206571155 0 0 0
17 1 0.3488637388087775 0.3591362611912226 3.8888637388087774 0 0 0
18 1 2.121307577486115 2.12497787400318 3.8917058470102166 0 0 0
19 1 2.121921101703768 0.3551609705464416 5.6619211017037685 0 0 0
20 1 0.3517058470102165 2.12497787400318 5.661307577486116 0 0 0
21 1 3.892674744905921 0.35460270997034093 3.8933972900296596 0 0 0
24 1 3.893104518174995 2.124158597151851 5.663318476502005 0 0 0
22 1 5.663691867264658 2.1239359520657115 3.894194503399862 0 0 0
23 1 5.663159762525242 0.3539780900065646 5.664270182027068 0 0 0
25 1 0.3546376408883883 3.8980390509589684 3.8946376408883885 0 0 0
27 1 2.124023273400152 3.894153442461483 5.6640232734001525 0 0 0
29 1 3.8943081327353424 3.894064047934289 3.894194503399862 0 0 0
31 1 5.664895481825005 3.893841402848149 5.663318476502005 0 0 0
26 1 2.125696039880833 5.665226601414241 3.8952266014142403 0 0 0
28 1 0.3552266014142394 5.66522660141424 5.6656960398808325 0 0 0
32 1 3.8948402374747584 5.664021909993435 5.664270182027067 0 0 0
30 1 5.665325255094079 5.663397290029659 3.8933972900296596 0 0 0
33 1 0.3533972900296592 0.3546027099703405 7.432674744905922 0 0 0
34 1 2.123318476502005 2.124158597151851 7.4331045181749955 0 0 0
35 1 2.1242701820270673 0.3539780900065637 9.203159762525242 0 0 0
36 1 0.35419450339986214 2.1239359520657115 9.203691867264657 0 0 0
37 1 3.893459370818004 0.3542617864538016 7.433459370818005 0 0 0
40 1 3.8940124971995553 2.124093165343644 9.203987502800445 0 0 0
38 1 5.6639875028004445 2.124093165343644 7.434012497199555 0 0 0
39 1 5.664540629181996 0.3542617864538016 9.204540629181997 0 0 0
41 1 0.35419450339986214 3.8940640479342887 7.434308132735342 0 0 0
43 1 2.1233184765020043 3.893841402848149 9.204895481825005 0 0 0
45 1 3.8940124971995553 3.8939068346563563 7.434012497199555 0 0 0
47 1 5.6639875028004445 3.8939068346563563 9.203987502800445 0 0 0
42 1 2.1242701820270673 5.664021909993436 7.434840237474758 0 0 0
44 1 0.353397290029659 5.66339729002966 9.20532525509408 0 0 0
48 1 3.8934593708180034 5.663738213546199 9.204540629181995 0 0 0
46 1 5.664540629181996 5.663738213546199 7.433459370818004 0 0 0
49 1 0.3552266014142404 0.35277339858576007 10.972303960119168 0 0 0
50 1 2.124023273400152 2.1238465575385166 10.97397672659985 0 0 0
51 1 2.1256960398808324 0.35277339858576023 12.74277339858576 0 0 0
52 1 0.35463764088838884 2.1199609490410323 12.743362359111611 0 0 0
53 1 3.8948402374747584 0.35397809000656455 10.973729817972933 0 0 0
56 1 3.8943081327353424 2.1239359520657115 12.743805496600137 0 0 0
54 1 5.664895481825004 2.124158597151851 10.974681523497996 0 0 0
55 1 5.665325255094079 0.35460270997034055 12.74460270997034 0 0 0
57 1 0.3517058470102161 3.8930221259968203 10.976692422513885 0 0 0
59 1 2.121307577486116 3.8930221259968203 12.746294152989783 0 0 0
61 1 3.8931045181749955 3.893841402848149 10.974681523497996 0 0 0
63 1 5.6636918672646575 3.8940640479342887 12.743805496600139 0 0 0
58 1 2.1219211017037685 5.662839029453559 10.976078898296231 0 0 0
60 1 0.3488637388087784 5.658863738808778 12.749136261191223 0 0 0
64 1 3.892674744905921 5.66339729002966 12.74460270997034 0 0 0
62 1 5.6631597625252414 5.664021909993436 10.973729817972933 0 0 0
65 1 0.3517058470102166 7.431307577486116 0.35497787400317954 0 0 0
66 1 2.1233184765020043 9.203104518174996 0.3541585971518508 0 0 0
67 1 2.1240232734001525 7.434023273400152 2.1241534424614836 0 0 0
68 1 0.35419450339986214 9.204308132735342 2.1240640479342887 0 0 0
69 1 3.8931045181749946 7.433318476502005 0.35415859715185055 0 0 0
72 1 3.8940124971995553 9.204012497199557 2.1239068346563563 0 0 0
70 1 5.6639875028004445 9.204012497199555 0.3540931653436435 0 0 0
71 1 5.664895481825005 7.433318476502005 2.123841402848149 0 0 0
73 1 0.3541945033998624 10.973691867264659 0.35393595206571105 0 0 0
75 1 2.123318476502005 10.974895481825005 2.123841402848149 0 0 0
77 1 3.894012497199556 10.973987502800444 0.35409316534364316 0 0 0
79 1 5.663987502800444 10.973987502800444 2.123906834656356 0 0 0
74 1 2.124023273400152 12.743976726599847 0.3538465575385174 0 0 0
76 1 0.35170584701021623 12.746692422513885 2.1230221259968203 0 0 0
80 1 3.893104518174995 12.744681523497995 2.1238414028481496 0 0 0
78 1 5.664895481825004 12.744681523497995 0.35415859715185055 0 0 0
81 1 0.3552266014142401 7.435696039880833 3.8952266014142407 0 0 0
82 1 2.1242701820270673 9.204840237474757 3.894021909993436 0 0 0
83 1 2.124760308934436 7.434760308934436 5.664760308934436 0 0 0
84 1 0.3540219099934361 9.204840237474759 5.664270182027067 0 0 0
85 1 3.894840237474758 7.434270182027068 3.8940219099934366 0 0 0
88 1 3.894248113520341 9.204248113520341 5.663956804037454 0 0 0
86 1 5.664540629181996 9.203459370818004 3.8937382135461993 0 0 0
87 1 5.664956170536009 7.43347857031713 5.66347857031713 0 0 0
89 1 0.3533972900296594 10.975325255094079 3.89339729002966 0 0 0
91 1 2.1234785703171295 10.97495617053601 5.66347857031713 0 0 0
93 1 3.893459370818004 10.974540629181996 3.8937382135461984 0 0 0
95 1 5.66375188647966 10.97375188647966 5.663956804037454 0 0 0
90 1 2.1219211017037676 12.746078898296233 3.8928390294535595 0 0 0
92 1 0.352839029453559 12.746078898296233 5.6619211017037685 0 0 0
96 1 3.8930438294639904 12.74452142968287 5.663478570317129 0 0 0
94 1 5.6631597625252414 12.743729817972934 3.8940219099934357 0 0 0
97 1 0.35402190999343625 7.434270182027068 7.434840237474758 0 0 0
98 1 2.1239568040374537 9.204248113520341 7.434248113520341 0 0 0
99 1 2.1234785703171295 7.43347857031713 9.20495617053601 0 0 0
100 1 0.35373821354619844 9.203459370818004 9.204540629181995 0 0 0
101 1 3.894248113520341 7.433956804037454 7.434248113520341 0 0 0
104 1 3.8938298965640397 9.20382989656404 9.20417010343596 0 0 0
102 1 5.664170103435961 9.20382989656404 7.433829896564039 0 0 0
103 1 5.663751886479659 7.433956804037454 9.20375188647966 0 0 0
105 1 0.35373821354619883 10.974540629181996 7.433459370818005 0 0 0
107 1 2.1239568040374532 10.97375188647966 9.20375188647966 0 0 0
109 1 3.893829896564039 10.974170103435961 7.433829896564039 0 0 0
111 1 5.664170103435961 10.974170103435961 9.20417010343596 0 0 0
106 1 2.123478570317129 12.74452142968287 7.4330438294639904 0 0 0
108 1 0.354021909993436 12.743729817972932 9.203159762525242 0 0 0
112 1 3.89424811352034 12.744043195962547 9.20375188647966 0 0 0
110 1 5.66375188647966 12.744043195962547 7.434248113520341 0 0 0
113 1 0.3528390294535589 7.431921101703769 10.976078898296233 0 0 0
114 1 2.1234785703171295 9.20304382946399 10.97452142968287 0 0 0
115 1 2.121921101703768 7.431921101703769 12.745160970546442 0 0 0
116 1 0.35339729002966025 9.20267474490592 12.74460270997034 0 0 0
117 1 3.89304382946399 7.43347857031713 10.97452142968287 0 0 0
120 1 3.8934593708180034 9.203459370818004 12.744261786453801 0 0 0
118 1 5.66375188647966 9.20424811352034 10.974043195962546 0 0 0
119 1 5.6631597625252414 7.434270182027067 12.743978090006564 0 0 0
121 1 0.35402190999343575 10.973159762525242 10.973729817972933 0 0 0
123 1 2.124270182027067 10.973159762525242 12.743978090006564 0 0 0
125 1 3.8942481135203404 10.97375188647966 10.974043195962548 0 0 0
127 1 5.664540629181996 10.974540629181996 12.744261786453801 0 0 0
122 1 2.1247603089344356 12.743239691065565 10.973239691065565 0 0 0
124 1 0.3552266014142402 12.742303960119168 12.74277339858576 0 0 0
128 1 3.894840237474759 12.743729817972934 12.743978090006564 0 0 0
126 1 5.664956170536009 12.744521429682871 10.97452142968287 0 0 0
129 1 7.436692422513884 0.356294152989784 0.3549778740031804 0 0 0
130 1 9.209106657431716 2.131612241865446 0.36161224186544666 0 0 0
131 1 9.203362359111612 0.3533623591116115 2.1280390509589684 0 0 0
132 1 7.432772386898932 2.1231887040805715 2.1248112959194287 0 0 0
133 1 10.981612241865447 0.3591066574317159 0.36161224186544616 0 0 0
136 1 10.980151335214998 2.130151335214998 2.1178486647850017 0 0 0
134 1 12.737848664785002 2.1301513352149986 0.36015133521499815 0 0 0
135 1 12.736387758134555 0.3591066574317161 2.116387758134554 0 0 0
137 1 7.432772386898932 3.8948112959194288 0.35318870408057135 0 0 0
139 1 9.209106657431716 3.886387758134554 2.1163877581345543 0 0 0
141 1 10.980151335214998 3.8878486647850017 0.36015133521499815 0 0 0
143 1 12.737848664785002 3.887848664785002 2.117848664785002 0 0 0
257 2 11.859 3.009 1.2389999999999999 0 0 0
138 1 9.203362359111612 5.664637640888389 0.3499609490410324 0 0 0
140 1 7.436692422513884 5.661705847010216 2.1230221259968203 0 0 0
144 1 10.981612241865445 5.658893342568284 2.116387758134554 0 0 0
142 1 12.736387758134553 5.658893342568284 0.3616122418654467 0 0 0
145 1 7.432303960119167 0.3527733985857605 3.8952266014142403 0 0 0
146 1 9.203362359111612 2.1199609490410323 3.894637640888389 0 0 0
147 1 9.202773398585759 0.35277339858576046 5.6656960398808325 0 0 0
148 1 7.433976726599847 2.1238465575385166 5.6640232734001525 0 0 0
149 1 10.969960949041033 0.3533623591116115 3.894637640888389 0 0 0
152 1 10.973188704080572 2.1231887040805715 5.6652276131010675 0 0 0
150 1 12.736387758134555 2.131612241865446 3.888893342568284 0 0 0
151 1 12.74302212599682 0.356294152989784 5.661307577486116 0 0 0
153 1 7.436692422513884 3.8930221259968203 3.8917058470102166 0 0 0
155 1 9.206294152989784 3.8930221259968203 5.661307577486116 0 0 0
157 1 10.981612241865447 3.886387758134554 3.888893342568285 0 0 0
159 1 12.744811295919428 3.8948112959194297 5.665227613101068 0 0 0
154 1 9.209136261191222 5.658863738808778 3.888863738808778 0 0 0
156 1 7.436078898296232 5.6628390294535595 5.6619211017037685 0 0 0
160 1 10.97497787400318 5.661705847010216 5.661307577486116 0 0 0
158 1 12.748039050958967 5.6646376408883885 3.8946376408883894 0 0 0
161 1 7.4337298179729325 0.35397809000656444 7.434840237474758 0 0 0
162 1 9.203805496600138 2.123935952065711 7.434308132735342 0 0 0
163 1 9.20460270997034 0.35460270997034127 9.20532525509408 0 0 0
164 1 7.4346815234979955 2.124158597151851 9.204895481825005 0 0 0
165 1 10.97393595206571 0.3538054966001383 7.434308132735342 0 0 0
168 1 10.974091416845047 2.1240914168450464 9.204056237789871 0 0 0
166 1 12.743908583154953 2.1240914168450464 7.43394376221013 0 0 0
167 1 12.74406404793429 0.3538054966001384 9.203691867264657 0 0 0
169 1 7.4346815234979955 3.893841402848149 7.4331045181749955 0 0 0
171 1 9.203805496600138 3.8940640479342883 9.203691867264657 0 0 0
173 1 10.974091416845047 3.8939085831549534 7.433943762210129 0 0 0
175 1 12.743908583154953 3.893908583154954 9.204056237789871 0 0 0
170 1 9.20460270997034 5.66339729002966 7.432674744905921 0 0 0
172 1 7.433729817972933 5.664021909993436 9.203159762525242 0 0 0
176 1 10.973935952065712 5.664194503399862 9.20369186726466 0 0 0
174 1 12.74406404793429 5.664194503399862 7.434308132735343 0 0 0
177 1 7.436078898296231 0.3551609705464408 10.976078898296231 0 0 0
178 1 9.206294152989784 2.12497787400318 10.976692422513885 0 0 0
179 1 9.209136261191222 0.35913626119122216 12.749136261191222 0 0 0
180 1 7.436692422513883 2.12497787400318 12.746294152989783 0 0 0
181 1 10.97497787400318 0.3562941529897842 10.976692422513885 0 0 0
184 1 10.981612241865447 2.131612241865446 12.749106657431716 0 0 0
182 1 12.744811295919428 2.1231887040805715 10.972772386898932 0 0 0
183 1 12.748039050958967 0.3533623591116114 12.743362359111611 0 0 0
185 1 7.433976726599847 3.8941534424614836 10.973976726599847 0 0 0
187 1 9.203362359111612 3.8980390509589684 12.743362359111611 0 0 0
189 1 10.973188704080572 3.894811295919429 10.972772386898933 0 0 0
191 1 12.736387758134555 3.886387758134554 12.749106657431716 0 0 0
186 1 9.202773398585759 5.66522660141424 10.972303960119168 0 0 0
188 1 7.432303960119167 5.66522660141424 12.74277339858576 0 0 0
192 1 10.969960949041031 5.6646376408883885 12.743362359111611 0 0 0
190 1 12.74302212599682 5.661705847010216 10.976692422513885 0 0 0
193 1 7.433976726599848 7.434023273400152 0.3538465575385172 0 0 0
194 1 9.203805496600138 9.204308132735342 0.3539359520657114 0 0 0
195 1 9.206294152989784 7.431307577486116 2.1230221259968207 0 0 0
196 1 7.4346815234979955 9.203104518174996 2.123841402848149 0 0 0
197 1 10.973188704080572 7.435227613101068 0.3531887040805714 0 0 0
200 1 10.974091416845047 9.20394376221013 2.123908583154954 0 0 0
198 1 12.743908583154953 9.203943762210129 0.354091416845047 0 0 0
199 1 12.744811295919428 7.435227613101068 2.1248112959194283 0 0 0
201 1 7.434681523497995 10.974895481825005 0.35415859715185094 0 0 0
203 1 9.203805496600138 10.973691867264659 2.1240640479342887 0 0 0
205 1 10.974091416845047 10.97405623778987 0.35409141684504675 0 0 0
207 1 12.743908583154953 10.97405623778987 2.123908583154954 0 0 0
202 1 9.206294152989784 12.746692422513885 0.35497787400318054 0 0 0
204 1 7.433976726599847 12.743976726599849 2.124153442461483 0 0 0
208 1 10.973188704080572 12.742772386898933 2.1248112959194287 0 0 0
206 1 12.744811295919428 12.742772386898933 0.35318870408057157 0 0 0
209 1 7.436078898296232 7.431921101703769 3.892839029453559 0 0 0
210 1 9.20460270997034 9.202674744905922 3.8933972900296596 0 0 0
211 1 9.20516097054644 7.431921101703768 5.6619211017037685 0 0 0
212 1 7.43452142968287 9.203043829463992 5.66347857031713 0 0 0
213 1 10.97497787400318 7.431307577486116 3.891705847010217 0 0 0
216 1 10.97415859715185 9.203104518174996 5.663318476502005 0 0 0
214 1 12.74406404793429 9.204308132735342 3.8941945033998624 0 0 0
215 1 12.744153442461483 7.434023273400151 5.6640232734001525 0 0 0
217 1 7.4337298179729325 10.973159762525242 3.894021909993437 0 0 0
219 1 9.203978090006563 10.973159762525242 5.664270182027067 0 0 0
221 1 10.97393595206571 10.973691867264657 3.894194503399862 0 0 0
223 1 12.74384140284815 10.974895481825005 5.663318476502005 0 0 0
218 1 9.20277339858576 12.742303960119168 3.8952266014142403 0 0 0
220 1 7.433239691065563 12.743239691065565 5.6647603089344365 0 0 0
224 1 10.973846557538517 12.743976726599847 5.6640232734001525 0 0 0
222 1 12.743022125996822 12.746692422513885 3.8917058470102166 0 0 0
225 1 7.434521429682871 7.4334785703171296 7.4330438294639904 0 0 0
226 1 9.2042617864538 9.203459370818004 7.433459370818004 0 0 0
227 1 9.203978090006563 7.434270182027067 9.203159762525242 0 0 0
228 1 7.434043195962546 9.20424811352034 9.20375188647966 0 0 0
229 1 10.97415859715185 7.433318476502006 7.4331045181749955 0 0 0
232 1 10.974093165343644 9.204012497199555 9.203987502800445 0 0 0
230 1 12.743906834656356 9.204012497199555 7.434012497199556 0 0 0
231 1 12.74384140284815 7.433318476502005 9.204895481825005 0 0 0
233 1 7.434043195962546 10.97375188647966 7.434248113520341 0 0 0
235 1 9.2042617864538 10.974540629181996 9.204540629181997 0 0 0
237 1 10.974093165343644 10.973987502800444 7.434012497199556 0 0 0
239 1 12.743906834656356 10.973987502800444 9.203987502800445 0 0 0
234 1 9.203978090006563 12.743729817972932 7.434840237474758 0 0 0
236 1 7.43452142968287 12.744521429682871 9.20495617053601 0 0 0
240 1 10.97415859715185 12.744681523497995 9.204895481825005 0 0 0
238 1 12.74384140284815 12.744681523497995 7.4331045181749955 0 0 0
241 1 7.433239691065563 7.434760308934436 10.973239691065563 0 0 0
242 1 9.203978090006563 9.204840237474759 10.973729817972933 0 0 0
243 1 9.202773398585759 7.435696039880833 12.74277339858576 0 0 0
244 1 7.4337298179729325 9.204840237474759 12.743978090006564 0 0 0
245 1 10.973846557538517 7.434023273400152 10.973976726599847 0 0 0
248 1 10.97393595206571 9.204308132735342 12.743805496600139 0 0 0
246 1 12.74384140284815 9.203104518174996 10.974681523497996 0 0 0
247 1 12.74302212599682 7.431307577486116 12.746294152989783 0 0 0
249 1 7.434521429682871 10.97495617053601 10.97452142968287 0 0 0
251 1 9.20460270997034 10.975325255094079 12.74460270997034 0 0 0
253 1 10.97415859715185 10.974895481825005 10.974681523497996 0 0 0
255 1 12.744064047934287 10.973691867264659 12.743805496600139 0 0 0
250 1 9.20516097054644 12.746078898296231 10.976078898296231 0 0 0
252 1 7.436078898296231 12.746078898296231 12.745160970546442 0 0 0
256 1 10.97497787400318 12.746692422513885 12.746294152989783 0 0 0
254 1 12.744153442461483 12.743976726599847 10.97397672659985 0 0 0

Velocities

1 0 0 0
2 0 0 0
3 0 0 0
4 0 0 0
5 0 0 0
8 0 0 0
6 0 0 0
7 0 0 0
9 0 0 0
11 0 0 0
13 0 0 0
15 0 0 0
10 0 0 0
12 0 0 0
16 0 0 0
14 0 0 0
17 0 0 0
18 0 0 0
19 0 0 0
20 0 0 0
21 0 0 0
24 0 0 0
22 0 0 0
23 0 0 0
25 0 0 0
27 0 0 0
29 0 0 0
31 0 0 0
26 0 0 0
28 0 0 0
32 0 0 0
30 0 0 0
33 0 0 0
34 0 0 0
35 0 0 0
36 0 0 0
37 0 0 0
40 0 0 0
38 0 0 0
39 0 0 0
41 0 0 0
43 0 0 0
45 0 0 0
47 0 0 0
42 0 0 0
44 0 0 0
48 0 0 0
46 0 0 0
49 0 0 0
50 0 0 0
51 0 0 0
52 0 0 0
53 0 0 0
56 0 0 0
54 0 0 0
55 0 0 0
57 0 0 0
59 0 0 0
61 0 0 0
63 0 0 0
58 0 0 0
60 0 0 0
64 0 0 0
62 0 0 0
65 0 0 0
66 0 0 0
67 0 0 0
68 0 0 0
69 0 0 0
72 0 0 0
70 0 0 0
71 0 0 0
73 0 0 0
75 0 0 0
77 0 0 0
79 0 0 0
74 0 0 0
76 0 0 0
80 0 0 0
78 0 0 0
81 0 0 0
82 0 0 0
83 0 0 0
84 0 0 0
85 0 0 0
88 0 0 0
86 0 0 0
87 0 0 0
89 0 0 0
91 0 0 0
93 0 0 0
95 0 0 0
90 0 0 0
92 0 0 0
96 0 0 0
94 0 0 0
97 0 0 0
98 0 0 0
99 0 0 0
100 0 0 0
101 0 0 0
104 0 0 0
102 0 0 0
103 0 0 0
105 0 0 0
107 0 0 0
109 0 0 0
111 0 0 0
106 0 0 0
108 0 0 0
112 0 0 0
110 0 0 0
113 0 0 0
114 0 0 0
115 0 0 0
116 0 0 0
117 0 0 0
120 0 0 0
118 0 0 0
119 0 0 0
121 0 0 0
123 0 0 0
125 0 0 0
127 0 0 0
122 0 0 0
124 0 0 0
128 0 0 0
126 0 0 0
129 0 0 0
130 0 0 0
131 0 0 0
132 0 0 0
133 0 0 0
136 0 0 0
134 0 0 0
135 0 0 0
137 0 0 0
139 0 0 0
141 0 0 0
143 0 0 0
257 0 0 0
138 0 0 0
140 0 0 0
144 0 0 0
142 0 0 0
145 0 0 0
146 0 0 0
147 0 0 0
148 0 0 0
149 0 0 0
152 0 0 0
150 0 0 0
151 0 0 0
153 0 0 0
155 0 0 0
157 0 0 0
159 0 0 0
154 0 0 0
156 0 0 0
160 0 0 0
158 0 0 0
161 0 0 0
162 0 0 0
163 0 0 0
164 0 0 0
165 0 0 0
168 0 0 0
166 0 0 0
167 0 0 0
169 0 0 0
171 0 0 0
173 0 0 0
175 0 0 0
170 0 0 0
172 0 0 0
176 0 0 0
174 0 0 0
177 0 0 0
178 0 0 0
179 0 0 0
180 0 0 0
181 0 0 0
184 0 0 0
182 0 0 0
183 0 0 0
185 0 0 0
187 0 0 0
189 0 0 0
191 0 0 0
186 0 0 0
188 0 0 0
192 0 0 0
190 0 0 0
193 0 0 0
194 0 0 0
195 0 0 0
196 0 0 0
197 0 0 0
200 0 0 0
198 0 0 0
199 0 0 0
201 0 0 0
203 0 0 0
205 0 0 0
207 0 0 0
202 0 0 0
204 0 0 0
208 0 0 0
206 0 0 0
209 0 0 0
210 0 0 0
211 0 0 0
212 0 0 0
213 0 0 0
216 0 0 0
214 0 0 0
215 0 0 0
217 0 0 0
219 0 0 0
221 0 0 0
223 0 0 0
218 0 0 0
220 0 0 0
224 0 0 0
222 0 0 0
225 0 0 0
226 0 0 0
227 0 0 0
228 0 0 0
229 0 0 0
232 0 0 0
230 0 0 0
231 0 0 0
233 0 0 0
235 0 0 0
237 0 0 0
239 0 0 0
234 0 0 0
236 0 0 0
240 0 0 0
238 0 0 0
241 0 0 0
242 0 0 0
243 0 0 0
244 0 0 0
245 0 0 0
248 0 0 0
246 0 0 0
247 0 0 0
249 0 0 0
251 0 0 0
253 0 0 0
255 0 0 0
250 0 0 0
252 0 0 0
256 0 0 0
254 0 0 0
