ITEM: TIMESTEP
0
ITEM: NUMBER OF ATOMS
269
ITEM: BOX BOUNDS pp pp pp
0.0 16.2014008
0.0 16.2014008
0.0 16.2014008
ITEM: ATOMS id type x y z
1 1 15.589243 15.5979071 15.6014538
2 1 1.4066389 1.4124653 15.5883971
3 1 1.3989753 15.5885201 1.4154599
4 1 15.5678263 1.4202361 1.4320947
5 1 3.4280448 15.5826454 15.5791044
6 1 5.4529691 1.397746 15.5651493
7 1 5.4442888 15.5669308 1.4032514
8 1 3.4233125 1.3926923 1.4034114
9 1 15.5818138 3.4377034 15.6022597
10 1 1.3980608 5.4565397 15.5817986
11 1 1.3918096 3.4288156 1.4163119
12 1 15.5570011 5.4543567 1.4335226
13 1 3.4288185 3.4233258 15.5619955
14 1 5.4497633 5.4439202 15.5645008
15 1 5.4478059 3.3897061 1.3685991
16 1 3.404942 5.4396873 1.3661834
17 1 15.5723171 15.6030646 3.4457712
18 1 1.3970761 1.4115479 3.4433184
19 1 1.3978704 15.5930767 5.4659119
20 1 15.5646391 1.4326213 5.4677992
21 1 3.4185388 15.5688229 3.4327188
22 1 5.447424 1.3702638 3.4351137
23 1 5.4287858 15.5081816 5.4629989
24 1 3.4419697 1.3875971 5.4557586
25 1 15.5474377 3.4425895 3.4594767
26 1 1.3790031 5.4513459 3.4292615
27 1 1.4009963 3.4361966 5.4634981
28 1 15.5574875 5.4634357 5.4712577
29 1 3.4347425 3.3984788 3.4283054
30 1 5.4094234 5.3512297 3.2951565
31 1 5.590003 3.3762801 5.4441567
32 1 3.4790311 5.4452038 5.431273
33 1 15.58527 15.6096707 7.4920073
34 1 1.4205202 1.426701 7.4801288
35 1 1.4187853 15.5997238 9.5144491
36 1 15.6045628 1.4279273 9.5113344
37 1 3.4280203 15.5738192 7.4936199
38 1 5.4557224 1.3676106 7.4773326
39 1 5.4593816 15.5738163 9.518343
40 1 3.4488638 1.417458 9.4971781
41 1 15.5903235 3.4479366 7.485363
42 1 1.4349779 5.4998913 7.4673114
43 1 1.4411856 3.4660576 9.4830952
44 1 15.5852261 5.4683347 9.520979
45 1 3.4745949 3.4474583 7.4376197
46 1 5.5899496 5.2672162 7.5629816
47 1 5.4945345 3.4306689 9.5081768
48 1 3.4989062 5.5057907 9.4546519
49 1 15.6037092 15.6054516 11.5479889
50 1 1.4263022 1.4275612 11.5275622
51 1 1.4180179 15.5931263 13.5636072
52 1 15.5979767 1.4217633 13.5718146
53 1 3.4415491 15.5899229 11.5326405
54 1 5.4786949 1.4209153 11.5164547
55 1 5.4580145 15.59268 13.5529728
56 1 3.4402433 1.4139488 13.5453778
57 1 15.6087284 3.4449632 11.5394268
58 1 1.4233891 5.4761896 11.5248347
59 1 1.4204015 3.4434014 13.5510245
60 1 15.5928555 5.4620085 13.5751229
61 1 3.4600227 3.4468606 11.5113192
62 1 5.5188546 5.4498902 11.5055447
63 1 5.4761777 3.4327467 13.5275479
64 1 3.4434161 5.4623618 13.5426941
65 1 15.5846348 7.4824729 15.6056605
66 1 1.4079889 9.5075817 15.5913191
67 1 1.3911765 7.4731002 1.4136882
68 1 15.5855761 9.5059643 1.4299808
69 1 3.4215744 7.4808374 15.5662632
70 1 5.4524341 9.5094853 15.5842638
71 1 5.4304481 7.4723621 1.3756578
72 1 3.4164045 9.5023737 1.3981184
73 1 15.5954352 11.5417462 15.6051865
74 1 1.4110378 13.5624409 15.5906391
75 1 1.4049839 11.5314036 1.4237517
76 1 15.5856142 13.5701552 1.4240196
77 1 3.4305744 11.5312472 15.5780278
78 1 5.4517761 13.5601444 15.5833292
79 1 5.4545679 11.5407334 1.3920369
80 1 3.4217966 13.5547505 1.4081315
81 1 15.5624628 7.4725428 3.4473114
82 1 1.4088136 9.502964 3.4629762
83 1 1.3804509 7.4806009 5.4584604
84 1 15.5433131 9.5241671 5.4629102
85 1 3.3912041 7.4530578 3.4206829
86 1 5.4351092 9.5956335 3.350385
87 1 5.3802376 7.7800532 5.1667504
88 1 3.4708102 9.4775934 5.5815397
89 1 15.5816345 11.5402508 3.4474752
90 1 1.3976878 13.5621367 3.4434865
91 1 1.392091 11.5534296 5.4668894
92 1 15.5719118 13.582161 5.4679189
93 1 3.4169228 11.5323754 3.4511338
94 1 5.4419928 13.5248022 3.4332228
95 1 5.4753714 11.5171452 5.4585157
96 1 3.4191594 13.5462618 5.4703288
97 1 15.5454016 7.5014415 7.4970761
98 1 1.2446106 9.6331091 7.4733434
99 1 1.3259721 7.4747525 9.5416985
100 1 15.5318594 9.5415364 9.5400963
101 1 3.1305363 7.8336654 7.5611358
102 1 5.4760242 9.718566 7.451788
103 1 5.4197216 7.4663725 9.6380272
104 1 3.1991026 9.490675 9.4504891
105 1 15.5274487 11.5828133 7.4948287
106 1 1.3995074 13.5745497 7.4965492
107 1 1.361272 11.5875302 9.5320721
108 1 15.583519 13.596529 9.5267229
109 1 3.4274011 11.5449381 7.5239315
110 1 5.4519124 13.5181656 7.5068565
111 1 5.5559631 11.4536066 9.5209131
112 1 3.4420803 13.5463429 9.5218382
113 1 15.5671625 7.4891501 11.5615101
114 1 1.3739246 9.5219336 11.5648585
115 1 1.4135848 7.4875455 13.5584841
116 1 15.5885239 9.5174036 13.5894156
117 1 3.4560914 7.5167609 11.5385256
118 1 5.5956068 9.441186 11.4133463
119 1 5.4590707 7.4815917 13.5595446
120 1 3.4482973 9.5084315 13.5412073
121 1 15.5779486 11.558094 11.5606451
122 1 1.424083 13.5670052 11.546835
123 1 1.4231519 11.5384741 13.5615626
124 1 15.5988722 13.574522 13.5781565
125 1 3.4886933 11.4894562 11.5009756
126 1 5.457355 13.5600434 11.543603
127 1 5.4572206 11.5265522 13.5632191
128 1 3.4382656 13.5524216 13.55297
129 1 7.4813185 15.5865956 15.5826969
130 1 9.5114012 1.4140796 15.5971957
131 1 9.5112057 15.5730648 1.4083942
132 1 7.4724198 1.3719229 1.3835793
133 1 11.5453558 15.6015511 15.6053629
134 1 13.5604067 1.4220413 15.6133623
135 1 13.5580368 15.605773 1.4309192
136 1 11.5221224 1.4291231 1.4420464
137 1 7.4853382 3.4127824 15.5669508
138 1 9.5145006 5.4487119 15.602643
139 1 9.4824705 3.4248312 1.4411848
140 1 7.4633799 5.4245572 1.3634758
141 1 11.5315533 3.4339712 15.6074744
142 1 13.5595532 5.457943 15.6132069
143 1 13.5280037 3.4410634 1.4556947
144 1 11.5363102 5.4562145 1.4206981
145 1 7.4704991 15.5097418 3.410959
146 1 9.4957266 1.3467633 3.4004603
147 1 9.5155516 15.5168247 5.4558478
148 1 7.4490428 1.1588991 5.449389
149 1 11.5309668 15.5828276 3.4444571
150 1 13.5115261 1.4430896 3.466183
151 1 13.5486737 15.6085053 5.4713912
152 1 11.490263 1.4280941 5.4859419
153 1 7.4592123 3.3805094 3.4646254
154 1 9.5160189 5.4980011 3.3226915
155 1 9.1874895 3.1799345 5.3841267
156 1 6.7310114 5.7324372 5.4852429
157 1 11.3496971 3.5172427 3.5997358
158 1 13.4744368 5.4517365 3.4882651
159 1 13.487382 3.4638961 5.4875646
160 1 11.3263083 5.4720941 5.6121116
161 1 7.4738078 15.5075531 7.5056167
162 1 9.5053864 1.3280982 7.4867702
163 1 9.5263863 15.5796328 9.5284491
164 1 7.5057202 1.3882432 9.4935608
165 1 11.5398436 15.5824213 7.4915829
166 1 13.5497589 1.4252408 7.4880929
167 1 13.5773402 15.6071911 9.5233355
168 1 11.561635 1.39638 9.5121775
169 1 7.5596338 3.2671812 7.3437419
170 1 9.704979 5.759459 7.7949715
171 1 9.5486794 3.3743796 9.4237795
172 1 7.5950494 5.5959902 9.2895203
173 1 11.5159254 3.4773789 7.512908
174 1 13.5570116 5.4688769 7.521853
175 1 13.5877667 3.431998 9.5325938
176 1 11.5851813 5.4120646 9.5896673
177 1 7.4877901 15.5978089 11.5435992
178 1 9.5219937 1.4123416 11.5378266
179 1 9.5202904 15.6060839 13.578331
180 1 7.4913726 1.4164989 13.5464087
181 1 11.5553732 15.6037283 11.5543394
182 1 13.5822935 1.417954 11.5497036
183 1 13.5759812 15.6038533 13.5823107
184 1 11.5467406 1.4154025 13.5795431
185 1 7.5328126 3.4655431 11.4749594
186 1 9.5214129 5.428133 11.5257921
187 1 9.5244789 3.4284563 13.5581131
188 1 7.4989419 5.436142 13.5701876
189 1 11.5542422 3.4186773 11.5612259
190 1 13.5742588 5.4661188 11.5645027
191 1 13.5723114 3.4376812 13.5813771
192 1 11.5464688 5.4517637 13.5858202
193 1 7.4780603 7.4735179 15.5813647
194 1 9.5250788 9.5207939 15.6109619
195 1 9.4790983 7.5159226 1.4016314
196 1 7.4946151 9.496934 1.3896117
197 1 11.546546 7.4804559 15.6146794
198 1 13.5747614 9.5124235 15.6195917
199 1 13.5475226 7.4770575 1.4456796
200 1 11.5465651 9.5039044 1.4257142
201 1 7.4829541 11.5443135 15.5943795
202 1 9.5181246 13.5761137 15.6026411
203 1 9.5109148 11.5495997 1.4063988
204 1 7.4788313 13.5489092 1.4025548
205 1 11.5521717 11.5477534 15.6137648
206 1 13.5724497 13.5758763 15.6092606
207 1 13.5691662 11.5393496 1.4297362
208 1 11.542965 13.5694819 1.4220696
209 1 7.4820514 7.4655295 3.4062343
210 1 9.4922877 9.5392561 3.3999698
211 1 9.615448 7.6182528 5.4606161
212 1 7.4575353 9.4576245 5.5337272
213 1 11.4976216 7.4616852 3.5029624
214 1 13.5527029 9.5068608 3.4454496
215 1 13.5408449 7.4947915 5.4843822
216 1 11.5386276 9.5403109 5.4402242
217 1 7.4873071 11.5234423 3.4490631
218 1 9.5142737 13.5362673 3.4358838
219 1 9.4635706 11.5103331 5.4584499
220 1 7.4739537 13.5134249 5.4703899
221 1 11.5367728 11.5506277 3.4405902
222 1 13.5601664 13.5724135 3.4482394
223 1 13.5407753 11.5464602 5.474876
224 1 11.5311461 13.5509691 5.4630351
225 1 7.8823118 7.4402151 7.2521634
226 1 9.3910418 9.5146036 7.3584094
227 1 9.4357624 7.5241523 9.7288714
228 1 7.6333542 9.8384667 9.8097763
229 1 11.5723772 7.5604859 7.5589714
230 1 13.5255833 9.5276766 7.5211244
231 1 13.5382109 7.5230017 9.5398827
232 1 11.5001564 9.6018791 9.5589838
233 1 7.4890657 11.4680872 7.5198407
234 1 9.5103312 13.5534392 7.4854317
235 1 9.5606356 11.6267205 9.4965725
236 1 7.4958625 13.562335 9.5443278
237 1 11.5093966 11.5552988 7.507875
238 1 13.5521841 13.5874958 7.4955106
239 1 13.5517006 11.5804339 9.5356894
240 1 11.5563097 13.5930443 9.5306626
241 1 7.5315538 7.5029812 11.7022963
242 1 9.581441 9.5170927 11.6472283
243 1 9.5436669 7.4723721 13.6213761
244 1 7.5012083 9.5344744 13.6128521
245 1 11.5486422 7.5078483 11.6014261
246 1 13.5590449 9.5308008 11.5794134
247 1 13.5730458 7.4867296 13.5939369
248 1 11.5658264 9.5271836 13.6170168
249 1 7.4999872 11.6371279 11.6619511
250 1 9.5290089 13.5995302 11.5697613
251 1 9.5317602 11.5633335 13.6118584
252 1 7.4909582 13.5926295 13.5939226
253 1 11.5505142 11.5817623 11.5815153
254 1 13.5747319 13.5913716 11.5605097
255 1 13.5735846 11.553463 13.5951233
256 1 11.5521603 13.5854359 13.5908213
257 2 4.6242805 8.0182819 6.7123375
258 2 5.052855 6.2459707 6.1223879
259 2 4.5131779 8.6217528 8.6246109
260 2 6.4072514 7.7859354 8.2299814
261 2 9.6729145 4.7625985 4.8916508
262 2 7.7276678 4.3021708 5.5896721
263 2 8.5795412 4.3469181 8.2575426
264 2 9.0854416 6.0855174 6.1761227
265 2 8.4939747 8.4695568 4.4215169
266 2 7.3506389 9.4578505 7.5468354
267 2 10.5272198 8.5815811 8.5897885
268 2 8.4807043 8.5462513 8.7744131
269 2 6.0260239 9.2561264 9.3392925
ITEM: TIMESTEP
1
ITEM: NUMBER OF ATOMS
269
ITEM: BOX BOUNDS pp pp pp
0.0 16.2014008
0.0 16.2014008
0.0 16.2014008
ITEM: ATOMS id type x y z
1 1 15.5941315 15.5996084 15.5987549
2 1 1.4130823 1.4144406 15.5861407
3 1 1.405762 15.5926323 1.4131463
4 1 15.5740719 1.421785 1.428221
5 1 3.4343198 15.586587 15.5776539
6 1 5.4618645 1.4004904 15.5735321
7 1 5.4527445 15.5755148 1.4058812
8 1 3.4343202 1.3985886 1.4026653
9 1 15.5879555 3.4392557 15.5996685
10 1 1.4022274 5.4584213 15.5790749
11 1 1.3973692 3.4312971 1.4130196
12 1 15.5613337 5.4564224 1.4302094
13 1 3.4350362 3.425072 15.5615902
14 1 5.4541869 5.4467635 15.5667811
15 1 5.4692536 3.3938718 1.3788197
16 1 3.411336 5.4432168 1.3608174
17 1 15.5806647 15.6027432 3.4433642
18 1 1.4032854 1.4170408 3.4392147
19 1 1.405051 15.5975743 5.4641662
20 1 15.5721922 1.4334421 5.4656406
21 1 3.4282933 15.578907 3.4307921
22 1 5.4776793 1.3922747 3.426312
23 1 5.4384036 15.5233736 5.4611707
24 1 3.4475334 1.4026766 5.4487849
25 1 15.5533314 3.4449551 3.4556103
26 1 1.3805243 5.4548335 3.4262605
27 1 1.4066726 3.4427376 5.4596772
28 1 15.5573826 5.4665728 5.4672604
29 1 3.4386978 3.4105952 3.4165847
30 1 5.4279957 5.368341 3.2777276
31 1 5.5676198 3.4218951 5.3611493
32 1 3.4835601 5.4618945 5.4324198
33 1 15.591588 15.6112414 7.4907828
34 1 1.4285789 1.4324829 7.4771962
35 1 1.4240525 15.6052342 9.5129891
36 1 15.6088534 1.4315837 9.5088139
37 1 3.4309464 15.5787421 7.4906459
38 1 5.4345336 1.3667195 7.477664
39 1 5.4706588 15.5868607 9.5143013
40 1 3.4587405 1.4297444 9.4938011
41 1 15.5948916 3.4506483 7.4811802
42 1 1.4351275 5.5079565 7.4633475
43 1 1.4468001 3.4700415 9.4801817
44 1 15.584795 5.4701152 9.5157719
45 1 3.4865277 3.4664099 7.4282279
46 1 5.5802546 5.3568721 7.5837493
47 1 5.5377941 3.4584153 9.4834891
48 1 3.4930206 5.5085798 9.4571677
49 1 15.6080113 15.6084528 11.5457335
50 1 1.4333155 1.4316476 11.5241251
51 1 1.4239468 15.5964041 13.5608683
52 1 15.6038533 1.4235002 13.5688105
53 1 3.4503937 15.5981846 11.5291548
54 1 5.4932623 1.4342286 11.5047102
55 1 5.4637714 15.5982924 13.5507326
56 1 3.4489372 1.4168221 13.5424004
57 1 15.6116686 3.4480305 11.5341873
58 1 1.4247378 5.4785371 11.5215979
59 1 1.4258719 3.4451475 13.5479756
60 1 15.5977202 5.464725 13.5717631
61 1 3.4689348 3.4502883 11.5079613
62 1 5.5177894 5.4462233 11.5071593
63 1 5.481133 3.4348135 13.5341826
64 1 3.448009 5.4643469 13.541481
65 1 15.5885926 7.4857612 15.6028929
66 1 1.4102401 9.5114336 15.5887537
67 1 1.3928732 7.4761381 1.4097936
68 1 15.5878992 9.5098677 1.4276021
69 1 3.4228573 7.4843736 15.5625258
70 1 5.4548416 9.515069 15.5807524
71 1 5.428988 7.4783688 1.3672342
72 1 3.4177415 9.5072079 1.3942775
73 1 15.5982447 11.5452404 15.6027737
74 1 1.415491 13.5661145 15.5883379
75 1 1.4084797 11.5357399 1.4220845
76 1 15.5898838 13.5721808 1.4219488
77 1 3.4340515 11.5362807 15.5754051
78 1 5.455936 13.5656796 15.5822153
79 1 5.45749 11.5470133 1.3897389
80 1 3.4273668 13.5606652 1.406602
81 1 15.5650673 7.4767509 3.4435063
82 1 1.4095426 9.508008 3.461124
83 1 1.3785342 7.4866514 5.455225
84 1 15.5405846 9.5261126 5.460661
85 1 3.3853254 7.4563966 3.4141646
86 1 5.4340949 9.6045571 3.3449571
87 1 5.3620825 7.7956968 5.1569176
88 1 3.4665203 9.4935494 5.5830975
89 1 15.5838461 11.5424137 3.44629
90 1 1.4033616 13.5669508 3.4420333
91 1 1.3943116 11.5595465 5.46555
92 1 15.5762186 13.5815659 5.4666405
93 1 3.4199271 11.539773 3.449807
94 1 5.4478789 13.53228 3.4337454
95 1 5.4787503 11.5211697 5.4581576
96 1 3.4257913 13.5542269 5.4691582
97 1 15.5412941 7.5034995 7.4919257
98 1 1.2356385 9.644454 7.4720788
99 1 1.3220813 7.4805441 9.5395403
100 1 15.527977 9.5436039 9.5365105
101 1 3.1157382 7.8548818 7.5565992
102 1 5.4772687 9.7208033 7.4495054
103 1 5.3857474 7.4766317 9.6379586
104 1 3.1922197 9.5064345 9.4504462
105 1 15.522995 11.5851126 7.4930482
106 1 1.4032936 13.579053 7.4953852
107 1 1.3603914 11.5955229 9.5311299
108 1 15.584671 13.598999 9.5251932
109 1 3.4315245 11.5536604 7.5249114
110 1 5.4584193 13.5254526 7.5054403
111 1 5.5664716 11.4557801 9.5208111
112 1 3.4488306 13.552805 9.5205012
113 1 15.5684414 7.4927416 11.5578947
114 1 1.3729926 9.527566 11.5632448
115 1 1.4149807 7.4905715 13.5571223
116 1 15.5906229 9.5213928 13.5866099
117 1 3.44941 7.5224962 11.5427971
118 1 5.5954018 9.4445963 11.4129858
119 1 5.4597101 7.4838825 13.5592642
120 1 3.4504035 9.5136271 13.5395928
121 1 15.5785561 11.5613861 11.5576115
122 1 1.4288314 13.572362 11.5449562
123 1 1.426309 11.5431128 13.5591898
124 1 15.6023913 13.5773764 13.575409
125 1 3.4932215 11.4960747 11.4990912
126 1 5.4647737 13.5669995 11.5403891
127 1 5.4618593 11.5319529 13.5598479
128 1 3.4434436 13.557705 13.5500469
129 1 7.4853797 15.5916901 15.5887413
130 1 9.5178347 1.4141498 15.6060772
131 1 9.5142813 15.5820933 1.4178846
132 1 7.4835162 1.3917453 1.4102266
133 1 11.548358 15.6019249 15.6072111
134 1 13.5659275 1.4222423 15.6122036
135 1 13.5625878 15.6044455 1.4283514
136 1 11.5281382 1.4286864 1.448093
137 1 7.4925862 3.414237 15.5740042
138 1 9.5201912 5.4518605 15.6037188
139 1 9.5001049 3.4243067 1.4354038
140 1 7.4650564 5.4272871 1.3622266
141 1 11.5400496 3.4340499 15.6068926
142 1 13.5674935 5.4609542 15.6113558
143 1 13.5328293 3.442375 1.4513886
144 1 11.5422783 5.4620729 1.4142333
145 1 7.4793568 15.5167847 3.4142861
146 1 9.5072384 1.363824 3.4329787
147 1 9.5223589 15.5114479 5.4590931
148 1 7.4743324 1.1768762 5.4363132
149 1 11.5374346 15.5756989 3.4442849
150 1 13.5271807 1.4363828 3.4596393
151 1 13.5607682 15.5983773 5.4691034
152 1 11.5365162 1.3885954 5.4823985
153 1 7.6086746 3.4508736 3.5761769
154 1 9.4959307 5.4847169 3.2946241
155 1 9.3783188 3.1767569 5.5356846
156 1 6.6881724 5.7543488 5.5050373
157 1 11.3650494 3.5063875 3.5853789
158 1 13.4811917 5.4565358 3.4783278
159 1 13.4922009 3.4631901 5.4810233
160 1 11.3436995 5.5062571 5.5493822
161 1 7.4768167 15.5195818 7.505879
162 1 9.5123701 1.312057 7.5043783
163 1 9.5275755 15.5840426 9.52948
164 1 7.5344057 1.4458789 9.4782744
165 1 11.5498648 15.573185 7.4971514
166 1 13.558898 1.4276628 7.489758
167 1 13.5809841 15.6081925 9.5220099
168 1 11.5678234 1.4030249 9.512518
169 1 7.424841 3.2369924 7.223774
170 1 9.6834421 5.5701518 7.7300334
171 1 9.5556345 3.4083302 9.5331612
172 1 7.5037256 5.5867119 9.3676596
173 1 11.4849653 3.4616413 7.4778695
174 1 13.5528145 5.4598127 7.5159145
175 1 13.5825587 3.4358535 9.5180331
176 1 11.5872336 5.4256544 9.5857821
177 1 7.4954534 15.6070242 11.5398436
178 1 9.5293207 1.4071311 11.5444632
179 1 9.5250969 15.6052351 13.5797415
180 1 7.4977966 1.4129834 13.5581188
181 1 11.5585728 15.6038656 11.5537539
182 1 13.588399 1.4214705 11.5466919
183 1 13.5802441 15.6047249 13.5799446
184 1 11.554121 1.4143753 13.5820236
185 1 7.5605116 3.4540541 11.5301066
186 1 9.5338249 5.4398136 11.5603934
187 1 9.5377331 3.4278744 13.5752764
188 1 7.5018106 5.4404102 13.5808687
189 1 11.5726967 3.4246595 11.5710669
190 1 13.5799389 5.4717818 11.5596457
191 1 13.5817652 3.4400602 13.5804529
192 1 11.5583325 5.4570875 13.5915175
193 1 7.4794913 7.4782534 15.5787421
194 1 9.5276156 9.5260763 15.6094628
195 1 9.4810457 7.5182476 1.3988197
196 1 7.496512 9.5018139 1.3862394
197 1 11.5510197 7.486434 15.6134568
198 1 13.577405 9.5172215 15.6168003
199 1 13.5512886 7.4825435 1.4404269
200 1 11.5461273 9.5084152 1.4234057
201 1 7.4860015 11.5494013 15.5924225
202 1 9.5204773 13.5800381 15.603571
203 1 9.5122519 11.5515318 1.4073123
204 1 7.4824801 13.5542832 1.4042462
205 1 11.5541001 11.5511656 15.6116905
206 1 13.575305 13.5774451 15.6068316
207 1 13.5705271 11.5417891 1.4278263
208 1 11.5443173 13.5702954 1.4218375
209 1 7.4667659 7.4715028 3.3981135
210 1 9.4847555 9.535842 3.4055066
211 1 9.576457 7.5766201 5.4477196
212 1 7.4454432 9.4408779 5.542882
213 1 11.4897537 7.4679623 3.484488
214 1 13.5511294 9.5101643 3.4425869
215 1 13.5387249 7.499126 5.4744101
216 1 11.5236912 9.5202055 5.4386869
217 1 7.4894686 11.5264445 3.4494353
218 1 9.5169125 13.5348444 3.43839
219 1 9.4622078 11.4993572 5.461998
220 1 7.4779206 13.5154085 5.4725013
221 1 11.5356083 11.5468817 3.4418769
222 1 13.5636788 13.5683813 3.4467807
223 1 13.5370074 11.5400439 5.4737211
224 1 11.532548 13.5434065 5.4649349
225 1 7.877986 7.3689914 7.2704787
226 1 9.3692064 9.4714852 7.3397188
227 1 9.44102 7.4645715 9.7138872
228 1 7.6318784 9.8193541 9.8039541
229 1 11.548914 7.5177794 7.5404411
230 1 13.5139256 9.5196839 7.5165797
231 1 13.5353852 7.5220609 9.5302916
232 1 11.4889794 9.5770378 9.5417052
233 1 7.4982524 11.4614363 7.521883
234 1 9.512991 13.5491534 7.4870177
235 1 9.5609665 11.6123371 9.4937849
236 1 7.5013466 13.5650816 9.5416222
237 1 11.5051136 11.5412913 7.5056529
238 1 13.5538903 13.5827198 7.4946251
239 1 13.5473128 11.5752297 9.5320206
240 1 11.5554295 13.5874129 9.5299225
241 1 7.5367589 7.5105233 11.7049456
242 1 9.5844345 9.5116167 11.639226
243 1 9.5488081 7.4798818 13.6241436
244 1 7.5048518 9.5390558 13.6103306
245 1 11.5543757 7.5123644 11.598156
246 1 13.5595112 9.5322905 11.5734759
247 1 13.5778704 7.4917155 13.5917082
248 1 11.5691061 9.5306578 13.6133671
249 1 7.5061798 11.6335755 11.6540585
250 1 9.5323754 13.599515 11.5665407
251 1 9.5345278 11.5658779 13.6076699
252 1 7.4946585 13.5954104 13.5905648
253 1 11.5511666 11.5761767 11.5741654
254 1 13.5762177 13.5914507 11.5573597
255 1 13.5757361 11.5559464 13.5912218
256 1 11.5552483 13.5855761 13.5882149
257 2 4.6087723 8.0408659 6.7085848
258 2 5.0458546 6.2831111 6.1557331
259 2 4.4971891 8.6318636 8.6319552
260 2 6.3853083 7.7747669 8.2390328
261 2 9.5213003 4.6881438 4.8107314
262 2 7.6327853 4.2978888 5.5520821
263 2 8.1225329 4.0169721 8.6833372
264 2 9.0241814 6.0259871 6.1204329
265 2 8.4789839 8.4633379 4.4175339
266 2 7.3511081 9.4376087 7.5546932
267 2 10.5134449 8.5445586 8.5715657
268 2 8.4876719 8.488637 8.761796
269 2 6.017354 9.2553768 9.3440504
ITEM: TIMESTEP
2
ITEM: NUMBER OF ATOMS
269
ITEM: BOX BOUNDS pp pp pp
0.0 16.2014008
0.0 16.2014008
0.0 16.2014008
ITEM: ATOMS id type x y z
1 1 15.5995703 15.602684 15.592762
2 1 1.4249792 1.4191027 15.5812712
3 1 1.4131405 15.6026955 1.4092698
4 1 15.5838442 1.4248909 1.4268079
5 1 3.4418307 15.592906 15.5727568
6 1 5.4684558 1.4029676 15.5777149
7 1 5.457541 15.5794945 1.4059787
8 1 3.4431553 1.4141181 1.4040263
9 1 15.6006146 3.4385581 15.5961294
10 1 1.4078416 5.4606619 15.5661707
11 1 1.4090134 3.4378679 1.4122237
12 1 15.5637875 5.4589281 1.4216202
13 1 3.4473152 3.4281159 15.5579338
14 1 5.4579516 5.4460564 15.5600014
15 1 5.4781351 3.4150701 1.3952446
16 1 3.4152377 5.4496756 1.3487783
17 1 15.5861607 15.6127167 3.4400726
18 1 1.4165124 1.4353673 3.4394586
19 1 1.4139341 15.6129475 5.457901
20 1 15.5839978 1.4445477 5.463378
21 1 3.4335542 15.5926371 3.4296792
22 1 5.4832616 1.3960791 3.4228945
23 1 5.4398303 15.5424195 5.4612222
24 1 3.4676817 1.4346172 5.45046
25 1 15.5692349 3.449136 3.4571214
26 1 1.3811448 5.4588704 3.427433
27 1 1.451671 3.4794343 5.4627896
28 1 15.5614538 5.4716587 5.4625702
29 1 3.4430857 3.4467316 3.4311054
30 1 5.4302559 5.4152475 3.3049097
31 1 5.5625921 3.46929 5.3412056
32 1 3.6434369 5.5467444 5.4979496
33 1 15.593359 15.6182747 7.4851151
34 1 1.4342604 1.4399221 7.4721179
35 1 1.4308392 15.6132317 9.5034685
36 1 15.6175013 1.4346359 9.5035115
37 1 3.4445913 15.6019249 7.4776073
38 1 5.4718118 1.4240005 7.4701333
39 1 5.4682393 15.5907889 9.4963312
40 1 3.4740317 1.444554 9.4780979
41 1 15.6101876 3.4546099 7.4766488
42 1 1.4454923 5.5107308 7.4649101
43 1 1.4687263 3.482451 9.4751721
44 1 15.5860996 5.4686132 9.5096035
45 1 3.4960838 3.4901405 7.4227634
46 1 6.0219431 5.8533516 7.8947458
47 1 5.5851026 3.4898281 9.4185152
48 1 3.5599838 5.4790325 9.4702206
49 1 15.6120167 15.609807 11.5381117
50 1 1.445373 1.4352489 11.5147753
51 1 1.4314908 15.6006174 13.5523672
52 1 15.6150952 1.4217903 13.5636139
53 1 3.457454 15.6067267 11.5164738
54 1 5.5099502 1.4463431 11.4593869
55 1 5.4650507 15.5996762 13.5388203
56 1 3.4620602 1.4172323 13.5296526
57 1 15.6236544 3.4448293 11.5283356
58 1 1.4313181 5.4745908 11.5124483
59 1 1.4419703 3.4440007 13.5393076
60 1 15.6055336 5.4636116 13.5655375
61 1 3.4919081 3.4489324 11.4914513
62 1 5.574605 5.4198776 11.4885168
63 1 5.4889903 3.4234472 13.5322972
64 1 3.4601929 5.4647756 13.5255976
65 1 15.5845328 7.4898463 15.5874033
66 1 1.4051995 9.5219994 15.5702467
67 1 1.3700011 7.4886117 1.3760061
68 1 15.5740624 9.5208292 1.4096352
69 1 3.4223099 7.4890814 15.5470066
70 1 5.4524555 9.5164604 15.5696783
71 1 5.4213619 7.4811416 1.3550879
72 1 3.4117539 9.5212317 1.3760325
73 1 15.5936432 11.5532446 15.5903206
74 1 1.4184754 13.574668 15.5794497
75 1 1.4040609 11.5495129 1.4087181
76 1 15.5893154 13.5811749 1.4141204
77 1 3.4359341 11.5449562 15.5670729
78 1 5.4576864 13.5662127 15.5782385
79 1 5.4554873 11.5362454 1.3998517
80 1 3.4306178 13.566454 1.4017075
81 1 15.556118 7.4827051 3.4294825
82 1 1.3775307 9.5285044 3.4363022
83 1 1.3655884 7.4958153 5.4266124
84 1 15.5218935 9.5347338 5.4479552
85 1 3.2966404 7.4851413 3.3308723
86 1 5.4291787 9.5459042 3.3944101
87 1 5.1659403 7.592598 5.1123548
88 1 3.4346276 9.5033236 5.5593863
89 1 15.5732785 11.5562392 3.4361341
90 1 1.4046422 13.5796891 3.4325316
91 1 1.3844429 11.5772648 5.4513574
92 1 15.572485 13.5939465 5.4592948
93 1 3.4172983 11.5388079 3.438401
94 1 5.4458733 13.537467 3.431993
95 1 5.4642921 11.521061 5.4445119
96 1 3.4256087 13.5663767 5.4589381
97 1 15.5368347 7.5069919 7.4829664
98 1 1.2084575 9.670106 7.4598427
99 1 1.3143976 7.4769421 9.5380211
100 1 15.5170508 9.5471134 9.5274735
101 1 3.0375168 7.861303 7.5191846
102 1 5.4667316 9.7077694 7.3973556
103 1 5.3715158 7.5144558 9.6717921
104 1 3.1715097 9.5084124 9.4270506
105 1 15.5068465 11.5987978 7.4835429
106 1 1.4025469 13.5922241 7.4854198
107 1 1.3512238 11.6062451 9.5205975
108 1 15.5792666 13.6056948 9.5163164
109 1 3.4226218 11.5578509 7.5061927
110 1 5.4555307 13.5315686 7.4908161
111 1 5.5450421 11.4498034 9.4859648
112 1 3.4461153 13.5596638 9.5051403
113 1 15.5678826 7.4927941 11.552228
114 1 1.3679668 9.5308829 11.5516405
115 1 1.4152123 7.4929166 13.5460415
116 1 15.5853262 9.5260887 13.5740938
117 1 3.4526892 7.5178023 11.5524416
118 1 5.5788894 9.4639235 11.424284
119 1 5.463789 7.4761524 13.5487118
120 1 3.4475806 9.5199824 13.5315724
121 1 15.5718575 11.5655613 11.5466633
122 1 1.4287906 13.5794506 11.5341072
123 1 1.4246811 11.5507593 13.5469418
124 1 15.60213 13.5811415 13.5660095
125 1 3.4842124 11.5033036 11.4830408
126 1 5.4626766 13.5641356 11.5235558
127 1 5.4612875 11.5355807 13.5465985
128 1 3.4457472 13.5643435 13.5399323
129 1 7.4865589 15.5881319 15.5869646
130 1 9.5192585 1.4023813 15.6119805
131 1 9.5130034 15.5808153 1.4220464
132 1 7.4875527 1.395909 1.4168973
133 1 11.5476733 15.59622 15.6050177
134 1 13.5729447 1.4177165 15.6110392
135 1 13.5643788 15.6052733 1.4262221
136 1 11.5308695 1.4225446 1.4529611
137 1 7.4968677 3.4071646 15.5821238
138 1 9.5237437 5.4439883 15.6106215
139 1 9.5052624 3.421458 1.4418032
140 1 7.4645152 5.4232254 1.3668368
141 1 11.5482569 3.4248455 15.6144343
142 1 13.5751019 5.458396 15.6101055
143 1 13.5440521 3.4381132 1.450427
144 1 11.5488472 5.4586363 1.4114605
145 1 7.4791713 15.5292158 3.4253686
146 1 9.5035639 1.3673594 3.447727
147 1 9.5138493 15.5265475 5.468031
148 1 7.4672838 1.2097603 5.4655867
149 1 11.5337477 15.5777598 3.4474385
150 1 13.5319376 1.4364938 3.4618538
151 1 13.5585089 15.6041832 5.4680724
152 1 11.5257111 1.3883798 5.4917231
153 1 7.6177573 3.4685748 3.5809222
154 1 9.5168638 5.4817119 3.3027737
155 1 9.3502398 3.1784008 5.5548744
156 1 6.7405477 5.7711649 5.5859676
157 1 11.3759985 3.4884966 3.5837837
158 1 13.4884672 5.4551692 3.4704864
159 1 13.5011196 3.4629843 5.478725
160 1 11.350296 5.5059648 5.5190568
161 1 7.4754095 15.5383063 7.506516
162 1 9.4861117 1.3527128 7.5439925
163 1 9.515811 15.5847683 9.5251999
164 1 7.5134239 1.5039277 9.4648304
165 1 11.5370407 15.5820914 7.4969721
166 1 13.5640726 1.4271462 7.4901819
167 1 13.5764485 15.6085482 9.5168515
168 1 11.5626803 1.4007414 9.5150309
169 1 7.3804302 3.3035557 7.2670927
170 1 9.693738 5.5167289 7.6891251
171 1 9.5654984 3.3840799 9.6290589
172 1 7.7628455 5.2541847 9.6667185
173 1 11.495204 3.4402995 7.4781504
174 1 13.5561438 5.4549432 7.5080872
175 1 13.5913821 3.4320164 9.5150442
176 1 11.6096745 5.437974 9.588584
177 1 7.4902578 15.6000271 11.5264836
178 1 9.5054569 1.4035653 11.5263567
179 1 9.5229855 15.5976982 13.5708113
180 1 7.4961438 1.3982706 13.5541249
181 1 11.5511036 15.6008168 11.5504141
182 1 13.5977164 1.4144101 11.5435648
183 1 13.5818634 15.6012631 13.5742703
184 1 11.5550375 1.3991432 13.5815773
185 1 7.5357828 3.3790174 11.5006438
186 1 9.5860062 5.3838215 11.6331187
187 1 9.5410443 3.3995681 13.5966721
188 1 7.5124269 5.4235311 13.5849524
189 1 11.6029206 3.4070218 11.5900774
190 1 13.5922547 5.4648686 11.5621214
191 1 13.5966273 3.4329436 13.584177
192 1 11.5733834 5.4501195 13.6104832
193 1 7.4800334 7.4747372 15.5751229
194 1 9.517478 9.5241452 15.5994101
195 1 9.4791184 7.5181666 1.3970739
196 1 7.4853196 9.4980183 1.3859993
197 1 11.5493002 7.4860277 15.6119786
198 1 13.5688439 9.5220585 15.6043587
199 1 13.549161 7.4863982 1.4289024
200 1 11.537283 9.5131483 1.413554
201 1 7.4803233 11.5459366 15.5862313
202 1 9.5157194 13.5765124 15.5973387
203 1 9.5032902 11.5515337 1.4015991
204 1 7.4797058 13.5543595 1.4052431
205 1 11.5447235 11.5516386 15.6015415
206 1 13.5726557 13.5790911 15.5993738
207 1 13.5618353 11.5489865 1.417935
208 1 11.5388527 13.5713511 1.4182409
209 1 7.458798 7.4608326 3.3917425
210 1 9.4700213 9.536439 3.4010048
211 1 9.5935126 7.5692706 5.4243093
212 1 7.4060049 9.4073429 5.5283985
213 1 11.4961052 7.4751673 3.4658742
214 1 13.5420132 9.5172129 3.4304397
215 1 13.5333185 7.5001683 5.4671202
216 1 11.5180369 9.5213843 5.4311147
217 1 7.474566 11.5177117 3.4434803
218 1 9.5078058 13.5383311 3.437685
219 1 9.4492293 11.5002756 5.4514408
220 1 7.4704895 13.5206986 5.4690042
221 1 11.5246544 11.5503426 3.4351652
222 1 13.5586691 13.5752335 3.4419613
223 1 13.5245056 11.5467673 5.4659992
224 1 11.5221195 13.5492573 5.462183
225 1 7.9623966 7.3560958 7.2746611
226 1 9.3572903 9.4667683 7.3199945
227 1 9.4618531 7.4373164 9.7194205
228 1 7.5982151 9.8008719 9.7440043
229 1 11.5343485 7.4945669 7.5371981
230 1 13.4979239 9.5176373 7.5103445
231 1 13.5329609 7.5240588 9.5248003
232 1 11.4746342 9.5665541 9.5359421
233 1 7.4825068 11.4545193 7.5024915
234 1 9.5004816 13.5478964 7.4814143
235 1 9.5490294 11.5909481 9.4751978
236 1 7.4935022 13.5587292 9.5256949
237 1 11.4896755 11.5369444 7.4940524
238 1 13.5423336 13.5885487 7.4884143
239 1 13.5343886 11.5742607 9.5224695
240 1 11.5428887 13.5828734 9.5222798
241 1 7.5353933 7.4833532 11.6837712
242 1 9.5645371 9.4975176 11.613472
243 1 9.5510321 7.4680615 13.6228285
244 1 7.4995137 9.5317183 13.5911627
245 1 11.5565701 7.4955449 11.6092081
246 1 13.551013 9.5308075 11.5641585
247 1 13.5782089 7.4915023 13.5882406
248 1 11.5571518 9.5267535 13.6024246
249 1 7.5018182 11.618331 11.623209
250 1 9.5241595 13.589696 11.5532274
251 1 9.5251179 11.5588112 13.5927401
252 1 7.4913745 13.5876379 13.5773039
253 1 11.5396338 11.5699435 11.5633507
254 1 13.5699864 13.590847 11.548646
255 1 13.5678272 11.556984 13.5804119
256 1 11.5495873 13.5813751 13.579772
257 2 4.5501461 8.1348848 6.7277932
258 2 5.2274804 6.4132648 6.4523468
259 2 4.4587193 8.6168213 8.6261225
260 2 6.3237634 7.7976628 8.164506
261 2 9.4985686 4.6760259 4.8143239
262 2 7.6462899 4.3091164 5.5640302
263 2 7.653749 3.4811282 9.3125782
264 2 9.0371027 6.0056181 6.11411
265 2 8.4665623 8.453557 4.4049139
266 2 7.3438149 9.4145079 7.5513964
267 2 10.4907942 8.5278511 8.5794792
268 2 8.4617052 8.3487311 8.7339716
269 2 5.9868646 9.2387562 9.2955227
ITEM: TIMESTEP
3
ITEM: NUMBER OF ATOMS
269
ITEM: BOX BOUNDS pp pp pp
0.0 16.2014008
0.0 16.2014008
0.0 16.2014008
ITEM: ATOMS id type x y z
1 1 15.5978251 15.6012669 15.5953789
2 1 1.4205045 1.4172797 15.5852213