ITEM: TIMESTEP
0
ITEM: NUMBER OF ATOMS
269
ITEM: BOX BOUNDS pp pp pp
0.0 16.2014008
0.0 16.2014008
0.0 16.2014008
ITEM: ATOMS id type x y z DisplacementX DisplacementY DisplacementZ
1 1 15.589243 15.5979071 15.6014548 0.0 0.0 0.0
2 1 1.4066389 1.4124653 15.5883971 0.0 0.0 0.0
3 1 1.3989753 15.5885201 1.4154599 0.0 0.0 0.0
4 1 15.5678253 1.4202361 1.4320947 0.0 0.0 0.0
5 1 3.4280448 15.5826445 15.5791044 0.0 0.0 0.0
6 1 5.4529691 1.397746 15.5651484 0.0 0.0 0.0
7 1 5.4442888 15.5669308 1.4032514 0.0 0.0 0.0
8 1 3.4233125 1.3926923 1.4034114 0.0 0.0 0.0
9 1 15.5818148 3.4377032 15.6022597 0.0 0.0 0.0
10 1 1.3980608 5.4565397 15.5817986 0.0 0.0 0.0
11 1 1.3918096 3.4288156 1.4163119 0.0 0.0 0.0
12 1 15.5570021 5.4543567 1.4335226 0.0 0.0 0.0
13 1 3.4288185 3.4233256 15.5619955 0.0 0.0 0.0
14 1 5.4497633 5.4439202 15.5645008 0.0 0.0 0.0
15 1 5.4478059 3.3897059 1.3685991 0.0 0.0 0.0
16 1 3.404942 5.4396873 1.3661834 0.0 0.0 0.0
17 1 15.5723171 15.6030636 3.4457712 0.0 0.0 0.0
18 1 1.3970761 1.4115479 3.4433184 0.0 0.0 0.0
19 1 1.3978704 15.5930767 5.4659119 0.0 0.0 0.0
20 1 15.5646382 1.4326213 5.4677992 0.0 0.0 0.0
21 1 3.4185388 15.5688229 3.4327188 0.0 0.0 0.0
22 1 5.447424 1.3702638 3.4351137 0.0 0.0 0.0
23 1 5.4287858 15.5081826 5.4629989 0.0 0.0 0.0
24 1 3.4419697 1.3875971 5.4557586 0.0 0.0 0.0
25 1 15.5474386 3.4425895 3.4594767 0.0 0.0 0.0
26 1 1.3790031 5.4513459 3.4292617 0.0 0.0 0.0
27 1 1.4009963 3.4361968 5.4634981 0.0 0.0 0.0
28 1 15.5574885 5.4634357 5.4712577 0.0 0.0 0.0
29 1 3.4347425 3.3984788 3.4283057 0.0 0.0 0.0
30 1 5.4094234 5.3512297 3.2951565 0.0 0.0 0.0
31 1 5.590003 3.3762801 5.4441567 0.0 0.0 0.0
32 1 3.4790311 5.4452038 5.431273 0.0 0.0 0.0
33 1 15.58527 15.6096707 7.4920073 0.0 0.0 0.0
34 1 1.4205202 1.426701 7.4801288 0.0 0.0 0.0
35 1 1.4187853 15.5997229 9.5144491 0.0 0.0 0.0
36 1 15.6045628 1.4279273 9.5113344 0.0 0.0 0.0
37 1 3.4280205 15.5738192 7.4936199 0.0 0.0 0.0
38 1 5.4557224 1.3676106 7.4773326 0.0 0.0 0.0
39 1 5.4593816 15.5738163 9.518343 0.0 0.0 0.0
40 1 3.448864 1.4174581 9.4971781 0.0 0.0 0.0
41 1 15.5903235 3.4479368 7.485363 0.0 0.0 0.0
42 1 1.4349779 5.4998913 7.4673114 0.0 0.0 0.0
43 1 1.4411856 3.4660576 9.4830952 0.0 0.0 0.0
44 1 15.5852261 5.4683347 9.520979 0.0 0.0 0.0
45 1 3.4745949 3.4474585 7.4376202 0.0 0.0 0.0
46 1 5.5899496 5.2672162 7.5629816 0.0 0.0 0.0
47 1 5.4945345 3.4306689 9.5081768 0.0 0.0 0.0
48 1 3.4989064 5.5057907 9.4546519 0.0 0.0 0.0
49 1 15.6037092 15.6054516 11.5479889 0.0 0.0 0.0
50 1 1.4263022 1.4275612 11.5275622 0.0 0.0 0.0
51 1 1.4180179 15.5931263 13.5636063 0.0 0.0 0.0
52 1 15.5979758 1.4217633 13.5718146 0.0 0.0 0.0
53 1 3.4415493 15.5899229 11.5326405 0.0 0.0 0.0
54 1 5.4786949 1.4209153 11.5164547 0.0 0.0 0.0
55 1 5.4580145 15.59268 13.5529728 0.0 0.0 0.0
56 1 3.4402433 1.4139488 13.5453778 0.0 0.0 0.0
57 1 15.6087284 3.4449632 11.5394268 0.0 0.0 0.0
58 1 1.4233891 5.4761896 11.5248347 0.0 0.0 0.0
59 1 1.4204015 3.4434016 13.5510245 0.0 0.0 0.0
60 1 15.5928564 5.4620085 13.5751229 0.0 0.0 0.0
61 1 3.4600227 3.4468608 11.5113192 0.0 0.0 0.0
62 1 5.5188546 5.4498906 11.5055447 0.0 0.0 0.0
63 1 5.4761777 3.4327469 13.5275469 0.0 0.0 0.0
64 1 3.4434161 5.4623618 13.5426941 0.0 0.0 0.0
65 1 15.5846348 7.4824729 15.6056605 0.0 0.0 0.0
66 1 1.4079889 9.5075817 15.5913182 0.0 0.0 0.0
67 1 1.3911765 7.4731002 1.4136882 0.0 0.0 0.0
68 1 15.5855761 9.5059643 1.4299808 0.0 0.0 0.0
69 1 3.4215744 7.4808378 15.5662623 0.0 0.0 0.0
70 1 5.4524341 9.5094853 15.5842638 0.0 0.0 0.0
71 1 5.4304481 7.4723625 1.3756578 0.0 0.0 0.0
72 1 3.4164045 9.5023737 1.3981184 0.0 0.0 0.0
73 1 15.5954352 11.5417462 15.6051874 0.0 0.0 0.0
74 1 1.4110378 13.5624419 15.5906382 0.0 0.0 0.0
75 1 1.4049839 11.5314036 1.4237517 0.0 0.0 0.0
76 1 15.5856142 13.5701552 1.4240196 0.0 0.0 0.0
77 1 3.4305744 11.5312472 15.5780268 0.0 0.0 0.0
78 1 5.4517761 13.5601444 15.5833292 0.0 0.0 0.0
79 1 5.4545679 11.5407334 1.3920369 0.0 0.0 0.0
80 1 3.4217968 13.5547505 1.4081315 0.0 0.0 0.0
81 1 15.5624628 7.4725423 3.4473112 0.0 0.0 0.0
82 1 1.4088136 9.502964 3.462976 0.0 0.0 0.0
83 1 1.3804509 7.4806009 5.4584604 0.0 0.0 0.0
84 1 15.543314 9.5241671 5.4629102 0.0 0.0 0.0
85 1 3.3912041 7.4530578 3.4206829 0.0 0.0 0.0
86 1 5.4351092 9.5956335 3.350385 0.0 0.0 0.0
87 1 5.3802376 7.7800527 5.1667504 0.0 0.0 0.0
88 1 3.4708104 9.4775934 5.5815397 0.0 0.0 0.0
89 1 15.5816355 11.5402508 3.4474752 0.0 0.0 0.0
90 1 1.3976878 13.5621357 3.4434865 0.0 0.0 0.0
91 1 1.392091 11.5534296 5.4668894 0.0 0.0 0.0
92 1 15.5719118 13.582161 5.4679189 0.0 0.0 0.0
93 1 3.4169228 11.5323754 3.4511335 0.0 0.0 0.0
94 1 5.4419928 13.5248013 3.4332228 0.0 0.0 0.0
95 1 5.4753714 11.5171452 5.4585157 0.0 0.0 0.0
96 1 3.4191592 13.5462628 5.4703288 0.0 0.0 0.0
97 1 15.5454016 7.5014415 7.4970761 0.0 0.0 0.0
98 1 1.2446106 9.6331091 7.4733434 0.0 0.0 0.0
99 1 1.3259721 7.4747529 9.5416985 0.0 0.0 0.0
100 1 15.5318594 9.5415364 9.5400963 0.0 0.0 0.0
101 1 3.1305363 7.8336654 7.5611358 0.0 0.0 0.0
102 1 5.4760242 9.718566 7.451788 0.0 0.0 0.0
103 1 5.4197216 7.466373 9.6380272 0.0 0.0 0.0
104 1 3.1991026 9.490675 9.4504891 0.0 0.0 0.0
105 1 15.5274477 11.5828133 7.4948287 0.0 0.0 0.0
106 1 1.3995074 13.5745507 7.4965487 0.0 0.0 0.0
107 1 1.361272 11.5875302 9.5320721 0.0 0.0 0.0
108 1 15.583519 13.596529 9.5267229 0.0 0.0 0.0
109 1 3.4274013 11.5449381 7.5239311 0.0 0.0 0.0
110 1 5.4519124 13.5181666 7.5068569 0.0 0.0 0.0
111 1 5.5559631 11.4536066 9.5209131 0.0 0.0 0.0
112 1 3.4420805 13.5463429 9.5218382 0.0 0.0 0.0
113 1 15.5671635 7.4891505 11.5615101 0.0 0.0 0.0
114 1 1.3739246 9.5219336 11.5648585 0.0 0.0 0.0
115 1 1.4135848 7.4875455 13.5584851 0.0 0.0 0.0
116 1 15.5885229 9.5174036 13.5894156 0.0 0.0 0.0
117 1 3.4560912 7.5167609 11.5385256 0.0 0.0 0.0
118 1 5.5956068 9.441186 11.4133463 0.0 0.0 0.0
119 1 5.4590707 7.4815922 13.5595436 0.0 0.0 0.0
120 1 3.4482973 9.5084315 13.5412083 0.0 0.0 0.0
121 1 15.5779486 11.558094 11.5606451 0.0 0.0 0.0
122 1 1.424083 13.5670052 11.546835 0.0 0.0 0.0
123 1 1.4231519 11.5384741 13.5615635 0.0 0.0 0.0
124 1 15.5988722 13.574522 13.5781565 0.0 0.0 0.0
125 1 3.4886933 11.4894562 11.5009756 0.0 0.0 0.0
126 1 5.457355 13.5600434 11.543603 0.0 0.0 0.0
127 1 5.4572211 11.5265522 13.5632191 0.0 0.0 0.0
128 1 3.4382656 13.5524225 13.55297 0.0 0.0 0.0
129 1 7.4813185 15.5865956 15.5826979 0.0 0.0 0.0
130 1 9.5114012 1.4140796 15.5971957 0.0 0.0 0.0
131 1 9.5112057 15.5730658 1.4083942 0.0 0.0 0.0
132 1 7.4724202 1.3719229 1.3835793 0.0 0.0 0.0
133 1 11.5453558 15.6015501 15.6053629 0.0 0.0 0.0
134 1 13.5604067 1.4220413 15.6133614 0.0 0.0 0.0
135 1 13.5580368 15.605773 1.4309192 0.0 0.0 0.0
136 1 11.5221224 1.4291231 1.4420464 0.0 0.0 0.0
137 1 7.4853382 3.4127824 15.5669508 0.0 0.0 0.0
138 1 9.5145006 5.4487119 15.602643 0.0 0.0 0.0
139 1 9.4824705 3.4248312 1.4411848 0.0 0.0 0.0
140 1 7.4633799 5.4245572 1.3634758 0.0 0.0 0.0
141 1 11.5315533 3.4339712 15.6074753 0.0 0.0 0.0
142 1 13.5595532 5.457943 15.6132069 0.0 0.0 0.0
143 1 13.5280028 3.4410632 1.4556947 0.0 0.0 0.0
144 1 11.5363102 5.4562145 1.4206981 0.0 0.0 0.0
145 1 7.4704991 15.5097428 3.410959 0.0 0.0 0.0
146 1 9.4957266 1.3467633 3.4004605 0.0 0.0 0.0
147 1 9.5155516 15.5168238 5.4558482 0.0 0.0 0.0
148 1 7.4490433 1.1588991 5.449389 0.0 0.0 0.0
149 1 11.5309668 15.5828276 3.4444573 0.0 0.0 0.0
150 1 13.5115261 1.4430896 3.466183 0.0 0.0 0.0
151 1 13.5486737 15.6085053 5.4713912 0.0 0.0 0.0
152 1 11.490263 1.4280942 5.4859419 0.0 0.0 0.0
153 1 7.4592119 3.3805096 3.4646256 0.0 0.0 0.0
154 1 9.5160189 5.4980011 3.3226917 0.0 0.0 0.0
155 1 9.1874895 3.1799345 5.3841267 0.0 0.0 0.0
156 1 6.7310114 5.7324372 5.4852429 0.0 0.0 0.0
157 1 11.3496971 3.5172429 3.599736 0.0 0.0 0.0
158 1 13.4744368 5.4517365 3.4882653 0.0 0.0 0.0
159 1 13.487382 3.4638961 5.4875646 0.0 0.0 0.0
160 1 11.3263083 5.4720941 5.6121116 0.0 0.0 0.0
161 1 7.4738078 15.5075541 7.5056167 0.0 0.0 0.0
162 1 9.5053864 1.3280982 7.4867707 0.0 0.0 0.0
163 1 9.5263863 15.5796318 9.5284491 0.0 0.0 0.0
164 1 7.5057202 1.3882432 9.4935608 0.0 0.0 0.0
165 1 11.5398436 15.5824204 7.4915834 0.0 0.0 0.0
166 1 13.549758 1.4252408 7.4880929 0.0 0.0 0.0
167 1 13.5773411 15.6071902 9.5233355 0.0 0.0 0.0
168 1 11.561635 1.39638 9.5121775 0.0 0.0 0.0
169 1 7.5596338 3.2671812 7.3437414 0.0 0.0 0.0
170 1 9.704979 5.759459 7.794971 0.0 0.0 0.0
171 1 9.5486794 3.3743796 9.4237795 0.0 0.0 0.0
172 1 7.5950494 5.5959902 9.2895203 0.0 0.0 0.0
173 1 11.5159254 3.4773789 7.512908 0.0 0.0 0.0
174 1 13.5570116 5.4688769 7.521853 0.0 0.0 0.0
175 1 13.5877667 3.431998 9.5325938 0.0 0.0 0.0
176 1 11.5851813 5.412065 9.5896673 0.0 0.0 0.0
177 1 7.4877906 15.5978098 11.5435992 0.0 0.0 0.0
178 1 9.5219937 1.4123416 11.5378266 0.0 0.0 0.0
179 1 9.5202904 15.6060829 13.578331 0.0 0.0 0.0
180 1 7.4913726 1.4164989 13.5464077 0.0 0.0 0.0
181 1 11.5553732 15.6037283 11.5543394 0.0 0.0 0.0
182 1 13.5822926 1.417954 11.5497036 0.0 0.0 0.0
183 1 13.5759812 15.6038533 13.5823107 0.0 0.0 0.0
184 1 11.5467406 1.4154025 13.5795422 0.0 0.0 0.0
185 1 7.5328126 3.4655433 11.4749594 0.0 0.0 0.0
186 1 9.5214129 5.428133 11.5257921 0.0 0.0 0.0
187 1 9.5244789 3.4284563 13.5581141 0.0 0.0 0.0
188 1 7.4989414 5.436142 13.5701876 0.0 0.0 0.0
189 1 11.5542422 3.4186771 11.5612259 0.0 0.0 0.0
190 1 13.5742588 5.4661188 11.5645027 0.0 0.0 0.0
191 1 13.5723124 3.4376812 13.581378 0.0 0.0 0.0
192 1 11.5464688 5.4517637 13.5858212 0.0 0.0 0.0
193 1 7.4780598 7.4735174 15.5813647 0.0 0.0 0.0
194 1 9.5250788 9.5207939 15.6109619 0.0 0.0 0.0
195 1 9.4790983 7.5159226 1.4016314 0.0 0.0 0.0
196 1 7.4946151 9.496934 1.3896117 0.0 0.0 0.0
197 1 11.546546 7.4804559 15.6146803 0.0 0.0 0.0
198 1 13.5747614 9.5124235 15.6195917 0.0 0.0 0.0
199 1 13.5475235 7.4770575 1.4456796 0.0 0.0 0.0
200 1 11.5465651 9.5039044 1.4257143 0.0 0.0 0.0
201 1 7.4829545 11.5443135 15.5943795 0.0 0.0 0.0
202 1 9.5181246 13.5761137 15.6026421 0.0 0.0 0.0
203 1 9.5109148 11.5495997 1.4063988 0.0 0.0 0.0
204 1 7.4788313 13.5489092 1.4025548 0.0 0.0 0.0
205 1 11.5521717 11.5477534 15.6137648 0.0 0.0 0.0
206 1 13.5724497 13.5758772 15.6092606 0.0 0.0 0.0
207 1 13.5691662 11.5393496 1.4297363 0.0 0.0 0.0
208 1 11.542965 13.5694819 1.4220696 0.0 0.0 0.0
209 1 7.4820514 7.4655295 3.4062345 0.0 0.0 0.0
210 1 9.4922877 9.5392561 3.3999696 0.0 0.0 0.0
211 1 9.615448 7.6182528 5.4606161 0.0 0.0 0.0
212 1 7.4575353 9.4576245 5.5337272 0.0 0.0 0.0
213 1 11.4976216 7.4616847 3.5029624 0.0 0.0 0.0
214 1 13.552702 9.5068608 3.4454496 0.0 0.0 0.0
215 1 13.5408449 7.4947911 5.4843827 0.0 0.0 0.0
216 1 11.5386276 9.5403109 5.4402242 0.0 0.0 0.0
217 1 7.4873071 11.5234423 3.4490633 0.0 0.0 0.0
218 1 9.5142737 13.5362673 3.435884 0.0 0.0 0.0
219 1 9.4635706 11.5103331 5.4584499 0.0 0.0 0.0
220 1 7.4739537 13.5134259 5.4703899 0.0 0.0 0.0
221 1 11.5367728 11.5506277 3.4405904 0.0 0.0 0.0
222 1 13.5601664 13.5724125 3.4482391 0.0 0.0 0.0
223 1 13.5407763 11.5464602 5.474876 0.0 0.0 0.0
224 1 11.5311461 13.5509691 5.4630351 0.0 0.0 0.0
225 1 7.8823118 7.4402151 7.2521634 0.0 0.0 0.0
226 1 9.3910418 9.5146036 7.3584094 0.0 0.0 0.0
227 1 9.4357624 7.5241518 9.7288714 0.0 0.0 0.0
228 1 7.6333542 9.8384667 9.8097763 0.0 0.0 0.0
229 1 11.5723772 7.5604854 7.5589714 0.0 0.0 0.0
230 1 13.5255842 9.5276766 7.5211249 0.0 0.0 0.0
231 1 13.5382109 7.5230017 9.5398827 0.0 0.0 0.0
232 1 11.5001564 9.6018791 9.5589838 0.0 0.0 0.0
233 1 7.4890657 11.4680872 7.5198407 0.0 0.0 0.0
234 1 9.5103312 13.5534401 7.4854322 0.0 0.0 0.0
235 1 9.5606356 11.6267205 9.4965725 0.0 0.0 0.0
236 1 7.4958625 13.562335 9.5443278 0.0 0.0 0.0
237 1 11.5093966 11.5552988 7.507875 0.0 0.0 0.0
238 1 13.5521841 13.5874958 7.4955106 0.0 0.0 0.0
239 1 13.5517006 11.5804339 9.5356894 0.0 0.0 0.0
240 1 11.5563097 13.5930453 9.5306626 0.0 0.0 0.0
241 1 7.5315538 7.5029807 11.7022963 0.0 0.0 0.0
242 1 9.581441 9.5170927 11.6472283 0.0 0.0 0.0
243 1 9.5436669 7.4723721 13.6213761 0.0 0.0 0.0
244 1 7.5012079 9.5344744 13.6128531 0.0 0.0 0.0
245 1 11.5486422 7.5078478 11.6014261 0.0 0.0 0.0
246 1 13.5590449 9.5308008 11.5794134 0.0 0.0 0.0
247 1 13.5730467 7.4867296 13.5939379 0.0 0.0 0.0
248 1 11.5658264 9.5271836 13.6170178 0.0 0.0 0.0
249 1 7.4999872 11.6371279 11.6619511 0.0 0.0 0.0
250 1 9.5290089 13.5995293 11.5697613 0.0 0.0 0.0
251 1 9.5317602 11.5633335 13.6118593 0.0 0.0 0.0
252 1 7.4909582 13.5926285 13.5939236 0.0 0.0 0.0
253 1 11.5505142 11.5817623 11.5815153 0.0 0.0 0.0
254 1 13.5747309 13.5913716 11.5605097 0.0 0.0 0.0
255 1 13.5735836 11.553463 13.5951233 0.0 0.0 0.0
256 1 11.5521603 13.5854349 13.5908213 0.0 0.0 0.0
257 2 4.6242805 8.0182819 6.7123375 0.0 0.0 0.0
258 2 5.052855 6.2459707 6.1223879 0.0 0.0 0.0
259 2 4.5131779 8.6217528 8.6246109 0.0 0.0 0.0
260 2 6.4072514 7.7859354 8.2299814 0.0 0.0 0.0
261 2 9.6729145 4.7625985 4.8916508 0.0 0.0 0.0
262 2 7.7276678 4.3021708 5.5896721 0.0 0.0 0.0
263 2 8.5795412 4.3469181 8.2575426 0.0 0.0 0.0
264 2 9.0854416 6.0855174 6.1761227 0.0 0.0 0.0
265 2 8.4939747 8.4695568 4.4215169 0.0 0.0 0.0
266 2 7.3506394 9.4578505 7.5468354 0.0 0.0 0.0
267 2 10.5272198 8.5815811 8.5897885 0.0 0.0 0.0
268 2 8.4807043 8.5462513 8.7744131 0.0 0.0 0.0
269 2 6.0260239 9.2561264 9.3392925 0.0 0.0 0.0
ITEM: TIMESTEP
1
ITEM: NUMBER OF ATOMS
269
ITEM: BOX BOUNDS pp pp pp
0.0 16.2014008
0.0 16.2014008
0.0 16.2014008
ITEM: ATOMS id type x y z DisplacementX DisplacementY DisplacementZ
1 1 15.5941315 15.5996084 15.5987549 0.0048885 0.0017014 -0.0026999
2 1 1.4130823 1.4144406 15.5861407 0.0064434 0.0019753 -0.0022564
3 1 1.405762 15.5926323 1.4131463 0.0067867 0.0041122 -0.0023136
4 1 15.5740719 1.421785 1.428221 0.0062466 0.0015489 -0.0038737
5 1 3.43432 15.586587 15.5776549 0.0062752 0.0039425 -0.0014496
6 1 5.4618645 1.4004904 15.5735331 0.0088954 0.0027444 0.0083847
7 1 5.4527445 15.5755148 1.4058812 0.0084558 0.008584 0.0026298
8 1 3.43432 1.3985887 1.4026653 0.0110075 0.0058963 -7.4613095e-04
9 1 15.5879555 3.4392557 15.5996685 0.0061407 0.0015526 -0.0025911
10 1 1.4022274 5.4584213 15.5790749 0.0041666 0.0018816 -0.0027237
11 1 1.3973692 3.4312973 1.4130197 0.0055596 0.0024817 -0.0032922
12 1 15.5613346 5.4564224 1.4302094 0.0043325 0.0020657 -0.0033132
13 1 3.435036 3.425072 15.5615902 0.0062175 0.0017464 -4.0531158e-04
14 1 5.4541869 5.4467635 15.5667811 0.0044236 0.0028434 0.0022802
15 1 5.4692536 3.393872 1.3788197 0.0214477 0.0041661 0.0102206
16 1 3.411336 5.4432168 1.3608174 0.0063939 0.0035295 -0.005366
17 1 15.5806637 15.6027422 3.4433639 0.0083466 -3.2138825e-04 -0.0024073
18 1 1.4032854 1.4170408 3.4392147 0.0062093 0.0054929 -0.0041037
19 1 1.405051 15.5975743 5.4641662 0.0071806 0.0044975 -0.0017457
20 1 15.5721922 1.4334421 5.465641 0.0075541 8.2087517e-04 -0.0021582
21 1 3.4282933 15.578907 3.4307921 0.0097544 0.0100842 -0.0019267
22 1 5.4776793 1.3922747 3.426312 0.0302553 0.0220109 -0.0088017
23 1 5.4384036 15.5233727 5.4611707 0.0096178 0.0151901 -0.0018282
24 1 3.4475336 1.4026766 5.4487849 0.005564 0.0150795 -0.0069737
25 1 15.5533314 3.4449551 3.4556105 0.0058928 0.0023656 -0.0038662
26 1 1.3805243 5.4548335 3.4262605 0.0015212 0.0034876 -0.0030012
27 1 1.4066726 3.4427376 5.4596772 0.0056763 0.0065408 -0.0038209
28 1 15.5573826 5.4665728 5.4672604 -1.0585785e-04 0.0031371 -0.0039973
29 1 3.4386976 3.4105952 3.4165847 0.0039551 0.0121164 -0.0117209
30 1 5.4279957 5.368341 3.2777276 0.0185723 0.0171113 -0.0174289
31 1 5.5676198 3.4218953 5.3611493 -0.0223832 0.0456152 -0.0830073
32 1 3.4835601 5.4618945 5.4324198 0.004529 0.0166907 0.0011468
33 1 15.591588 15.6112414 7.4907823 0.0063181 0.0015707 -0.001225
34 1 1.4285789 1.432483 7.4771962 0.0080587 0.005782 -0.0029325
35 1 1.4240525 15.6052332 9.5129891 0.0052671 0.0055103 -0.0014601
36 1 15.6088524 1.4315837 9.5088139 0.0042896 0.0036564 -0.0025206
37 1 3.4309464 15.5787421 7.4906454 0.0029259 0.0049229 -0.0029745
38 1 5.4345336 1.3667195 7.477664 -0.0211887 -8.9108944e-04 3.3140183e-04
39 1 5.4706588 15.5868607 9.5143013 0.0112772 0.0130444 -0.0040417
40 1 3.4587405 1.4297444 9.4938011 0.0098765 0.0122863 -0.003377
41 1 15.5948916 3.4506483 7.4811802 0.0045681 0.0027115 -0.0041828
42 1 1.4351275 5.5079565 7.4633475 1.4960766e-04 0.0080652 -0.0039639
43 1 1.4468001 3.4700415 9.4801817 0.0056145 0.003984 -0.0029135
44 1 15.584795 5.4701152 9.5157719 -4.3106079e-04 0.0017805 -0.0052071
45 1 3.4865277 3.4664099 7.4282279 0.0119329 0.0189514 -0.0093923
46 1 5.5802546 5.3568721 7.5837498 -0.0096951 0.0896559 0.0207682
47 1 5.5377941 3.4584153 9.4834891 0.0432596 0.0277464 -0.0246878
48 1 3.4930208 5.5085802 9.4571677 -0.0058856 0.0027895 0.0025158
49 1 15.6080113 15.6084528 11.5457335 0.004302 0.0030012 -0.0022554
50 1 1.4333155 1.4316477 11.5241251 0.0070133 0.0040865 -0.003437
51 1 1.4239469 15.5964051 13.5608692 0.005929 0.0032787 -0.002737
52 1 15.6038533 1.4235002 13.5688114 0.0058775 0.0017369 -0.0030031
53 1 3.4503937 15.5981837 11.5291548 0.0088444 0.0082607 -0.0034857
54 1 5.4932623 1.4342287 11.5047102 0.0145674 0.0133134 -0.0117445
55 1 5.4637714 15.5982924 13.5507326 0.0057569 0.0056124 -0.0022402
56 1 3.4489372 1.4168221 13.5424004 0.0086939 0.0028733 -0.0029774
57 1 15.6116686 3.4480305 11.5341873 0.0029402 0.0030673 -0.0052395
58 1 1.4247378 5.4785371 11.5215979 0.0013487 0.0023475 -0.0032368
59 1 1.4258719 3.4451475 13.5479756 0.0054704 0.0017459 -0.0030489
60 1 15.5977202 5.464725 13.5717631 0.0048637 0.0027165 -0.0033598
61 1 3.4689348 3.4502883 11.5079613 0.0089121 0.0034275 -0.0033579
62 1 5.5177894 5.4462233 11.5071593 -0.0010653 -0.0036674 0.0016146
63 1 5.481133 3.4348135 13.5341826 0.0049553 0.0020666 0.0066357
64 1 3.448009 5.4643469 13.541481 0.0045929 0.0019851 -0.0012131
65 1 15.5885916 7.4857617 15.6028929 0.0039568 0.0032887 -0.0027676
66 1 1.4102401 9.5114336 15.5887537 0.0022511 0.0038519 -0.0025644
67 1 1.3928732 7.4761386 1.4097936 0.0016967 0.0030384 -0.0038946
68 1 15.5878992 9.5098677 1.4276021 0.0023232 0.0039034 -0.0023787
69 1 3.4228573 7.4843736 15.5625267 0.0012829 0.0035357 -0.0037355
70 1 5.4548416 9.515069 15.5807524 0.0024076 0.0055838 -0.0035114
71 1 5.428988 7.4783688 1.3672342 -0.0014601 0.0060062 -0.0084236
72 1 3.4177415 9.5072079 1.3942775 0.0013371 0.0048342 -0.0038409
73 1 15.5982447 11.5452404 15.6027746 0.0028095 0.0034943 -0.0024128
74 1 1.415491 13.5661154 15.5883379 0.0044532 0.0036736 -0.0023003
75 1 1.4084797 11.5357399 1.4220845 0.0034958 0.0043364 -0.0016673
76 1 15.5898829 13.5721808 1.4219488 0.0042686 0.0020256 -0.0020708
77 1 3.4340515 11.5362807 15.5754051 0.0034771 0.0050335 -0.0026217
78 1 5.455936 13.5656796 15.5822163 0.0041599 0.0055351 -0.0011129
79 1 5.45749 11.5470133 1.3897389 0.0029221 0.0062799 -0.002298
80 1 3.4273668 13.5606652 1.406602 0.0055699 0.0059147 -0.0015295
81 1 15.5650673 7.4767514 3.4435065 0.0026045 0.004209 -0.0038047
82 1 1.4095426 9.508008 3.461124 7.2896481e-04 0.005044 -0.001852
83 1 1.3785342 7.4866514 5.455225 -0.0019166 0.0060506 -0.0032353
84 1 15.5405836 9.5261126 5.460661 -0.0027304 0.0019455 -0.0022492
85 1 3.3853257 7.4563966 3.4141648 -0.0058784 0.0033388 -0.0065181
86 1 5.4340949 9.6045571 3.3449571 -0.0010142 0.0089235 -0.0054278
87 1 5.3620825 7.7956968 5.1569176 -0.0181551 0.0156441 -0.0098329
88 1 3.4665203 9.4935494 5.5830975 -0.0042901 0.0159559 0.0015578
89 1 15.5838461 11.5424137 3.44629 0.0022106 0.0021629 -0.0011852
90 1 1.4033616 13.5669508 3.4420333 0.0056738 0.0048151 -0.0014532
91 1 1.3943116 11.5595465 5.46555 0.0022205 0.0061169 -0.0013394
92 1 15.5762196 13.5815668 5.4666405 0.0043077 -5.941391e-04 -0.0012784
93 1 3.4199271 11.539773 3.449807 0.0030043 0.0073977 -0.0013266
94 1 5.4478789 13.53228 3.4337456 0.0058861 0.0074787 5.2285195e-04
95 1 5.4787503 11.5211697 5.4581576 0.0033789 0.0040245 -3.5810471e-04
96 1 3.4257913 13.5542269 5.4691582 0.0066321 0.0079641 -0.0011706
97 1 15.5412941 7.5034991 7.4919257 -0.0041075 0.0020576 -0.0051503
98 1 1.2356385 9.644454 7.4720783 -0.008972 0.0113449 -0.001265
99 1 1.3220813 7.4805441 9.5395403 -0.0038908 0.0057912 -0.0021582
100 1 15.527977 9.5436039 9.5365105 -0.0038824 0.0020676 -0.0035858
101 1 3.1157382 7.8548818 7.5565992 -0.0147982 0.0212164 -0.0045366
102 1 5.4772687 9.7208033 7.4495058 0.0012445 0.0022373 -0.0022821
103 1 5.3857474 7.4766321 9.6379586 -0.0339742 0.0102592 -6.8664552e-05
104 1 3.1922195 9.5064345 9.4504462 -0.0068831 0.0157595 -4.2915344e-05
105 1 15.522995 11.5851126 7.4930482 -0.0044527 0.0022993 -0.0017805
106 1 1.4032936 13.579053 7.4953857 0.0037862 0.0045023 -0.001163
107 1 1.3603914 11.5955229 9.5311299 -8.8059902e-04 0.0079927 -9.4223023e-04
108 1 15.584671 13.598999 9.5251932 0.001152 0.00247 -0.0015297
109 1 3.4315245 11.5536604 7.5249114 0.0041232 0.0087223 9.803772e-04
110 1 5.4584193 13.5254526 7.5054403 0.0065069 0.0072861 -0.0014167
111 1 5.5664716 11.4557801 9.5208111 0.0105085 0.0021734 -1.0204315e-04
112 1 3.4488304 13.552805 9.5205012 0.0067499 0.0064621 -0.0013371
113 1 15.5684414 7.4927416 11.5578947 0.0012779 0.0035911 -0.0036154
114 1 1.3729926 9.527566 11.5632448 -9.3197823e-04 0.0056324 -0.0016136
115 1 1.4149807 7.490571 13.5571213 0.0013958 0.0030255 -0.0013638
116 1 15.590622 9.5213928 13.5866099 0.002099 0.0039892 -0.0028057
117 1 3.44941 7.5224962 11.5427971 -0.0066812 0.0057354 0.0042715
118 1 5.5954018 9.4445963 11.4129858 -2.0503998e-04 0.0034103 -3.6048889e-04
119 1 5.4597101 7.4838825 13.5592642 6.3943863e-04 0.0022902 -2.7942658e-04
120 1 3.4504037 9.5136271 13.5395937 0.0021064 0.0051956 -0.0016146
121 1 15.578557 11.5613861 11.5576115 6.0844421e-04 0.0032921 -0.0030336
122 1 1.4288315 13.572362 11.5449562 0.0047485 0.0053568 -0.0018787
123 1 1.426309 11.5431128 13.5591908 0.0031571 0.0046387 -0.0023727
124 1 15.6023922 13.5773764 13.575409 0.00352 0.0028543 -0.0027475
125 1 3.4932215 11.4960747 11.4990912 0.0045283 0.0066185 -0.0018845
126 1 5.4647737 13.5670004 11.5403891 0.0074186 0.0069571 -0.0032139
127 1 5.4618593 11.5319529 13.5598479 0.0046382 0.0054007 -0.0033712
128 1 3.4434436 13.557705 13.550046 0.005178 0.0052824 -0.002924
129 1 7.4853802 15.5916901 15.5887404 0.0040617 0.0050945 0.0060425
130 1 9.5178347 1.4141498 15.6060772 0.0064335 7.0214272e-05 0.0088816
131 1 9.5142813 15.5820933 1.4178846 0.0030756 0.0090275 0.0094904
132 1 7.4835162 1.3917453 1.4102266 0.011096 0.0198225 0.0266473
133 1 11.548358 15.6019249 15.6072111 0.0030022 3.7479401e-04 0.0018482
134 1 13.5659285 1.4222423 15.6122036 0.0055218 2.0098686e-04 -0.0011578
135 1 13.5625868 15.6044445 1.4283514 0.00455 -0.0013285 -0.0025678
136 1 11.5281382 1.4286864 1.4480931 0.0060158 -4.3666363e-04 0.0060467
137 1 7.4925866 3.414237 15.5740052 0.0072484 0.0014546 0.0070543
138 1 9.5201912 5.4518605 15.6037188 0.0056906 0.0031486 0.0010757
139 1 9.5001049 3.4243069 1.4354038 0.0176344 -5.2428246e-04 -0.0057809
140 1 7.465056 5.4272871 1.3622266 0.0016761 0.0027299 -0.0012492
141 1 11.5400496 3.4340501 15.6068926 0.0084963 7.891655e-05 -5.8269501e-04
142 1 13.5674925 5.4609542 15.6113549 0.0079393 0.0030112 -0.001852
143 1 13.5328284 3.442375 1.4513886 0.0048256 0.0013118 -0.0043061
144 1 11.5422783 5.4620729 1.4142333 0.0059681 0.0058584 -0.0064647
145 1 7.4793568 15.5167837 3.4142859 0.0088577 0.007041 0.0033269
146 1 9.5072384 1.363824 3.4329789 0.0115118 0.0170608 0.0325184
147 1 9.5223589 15.5114479 5.4590931 0.0068073 -0.0053759 0.0032449
148 1 7.4743328 1.1768762 5.4363132 0.0252895 0.0179771 -0.0130758
149 1 11.5374346 15.5756989 3.4442849 0.0064678 -0.0071287 -1.7237664e-04
150 1 13.5271807 1.4363828 3.4596393 0.0156546 -0.0067068 -0.0065436
151 1 13.5607682 15.5983773 5.4691034 0.0120945 -0.010128 -0.0022879
152 1 11.5365162 1.3885954 5.4823985 0.0462532 -0.0394988 -0.0035434
153 1 7.6086746 3.4508736 3.5761769 0.1494627 0.070364 0.1115513
154 1 9.4959307 5.4847169 3.2946241 -0.0200882 -0.0132842 -0.0280676
155 1 9.3783188 3.1767569 5.5356846 0.1908293 -0.0031776 0.1515579
156 1 6.6881724 5.7543488 5.5050373 -0.0428391 0.0219116 0.0197945
157 1 11.3650494 3.5063877 3.5853789 0.0153522 -0.0108552 -0.0143571
158 1 13.4811917 5.4565358 3.478328 0.0067549 0.0047994 -0.0099373
159 1 13.4922018 3.4631901 5.4810233 0.0048199 -7.0595741e-04 -0.0065413
160 1 11.3436995 5.5062571 5.5493822 0.0173912 0.034163 -0.0627294
161 1 7.4768167 15.5195828 7.505879 0.0030088 0.0120287 2.6226044e-04
162 1 9.5123701 1.312057 7.5043783 0.0069838 -0.0160412 0.0176077
163 1 9.5275755 15.5840435 9.52948 0.0011892 0.0044117 0.0010309
164 1 7.5344057 1.4458789 9.4782744 0.0286856 0.0576357 -0.0152864
165 1 11.5498648 15.573185 7.4971514 0.0100212 -0.0092354 0.005568
166 1 13.558898 1.4276629 7.489758 0.00914 0.0024221 0.0016651
167 1 13.5809841 15.6081925 9.5220099 0.003643 0.0010023 -0.0013256
168 1 11.5678234 1.4030249 9.512518 0.0061884 0.006645 3.4046173e-04
169 1 7.424841 3.2369924 7.223774 -0.1347928 -0.0301888 -0.1199675
170 1 9.6834421 5.5701518 7.7300334 -0.0215368 -0.1893072 -0.0649376
171 1 9.5556345 3.4083305 9.5331612 0.0069551 0.0339508 0.1093817
172 1 7.5037256 5.5867119 9.3676596 -0.0913239 -0.0092783 0.0781393
173 1 11.4849653 3.4616413 7.4778695 -0.0309601 -0.0157375 -0.0350385
174 1 13.5528145 5.4598127 7.5159145 -0.0041971 -0.0090642 -0.0059385
175 1 13.5825587 3.4358535 9.5180331 -0.005208 0.0038555 -0.0145607
176 1 11.5872336 5.4256544 9.5857821 0.0020523 0.0135894 -0.0038853
177 1 7.4954539 15.6070242 11.5398436 0.0076633 0.0092144 -0.0037556
178 1 9.5293207 1.4071311 11.5444632 0.0073271 -0.0052105 0.0066366
179 1 9.5250969 15.6052351 13.5797405 0.0048065 -8.4781647e-04 0.0014095
180 1 7.497797 1.4129834 13.5581188 0.0064244 -0.0035155 0.0117111
181 1 11.5585728 15.6038656 11.5537539 0.0031996 1.373291e-04 -5.8555604e-04
182 1 13.588399 1.4214705 11.5466919 0.0061064 0.0035166 -0.0030117
183 1 13.580245 15.6047249 13.5799437 0.0042639 8.7165833e-04 -0.002367
184 1 11.554121 1.4143753 13.5820236 0.0073805 -0.0010272 0.0024815
185 1 7.5605121 3.4540541 11.5301066 0.0276995 -0.0114892 0.0551472
186 1 9.5338249 5.4398136 11.5603934 0.0124121 0.0116806 0.0346012
187 1 9.5377331 3.4278744 13.5752764 0.0132542 -5.8197975e-04 0.0171623
188 1 7.5018106 5.4404106 13.5808687 0.0028691 0.0042686 0.0106812
189 1 11.5726967 3.4246595 11.5710669 0.0184546 0.0059824 0.009841
190 1 13.5799389 5.4717818 11.5596457 0.0056801 0.0056629 -0.0048571
191 1 13.5817652 3.4400599 13.5804529 0.0094528 0.0023787 -9.2506409e-04
192 1 11.5583325 5.4570875 13.5915165 0.0118637 0.0053239 0.0056953
193 1 7.4794913 7.4782534 15.5787421 0.0014315 0.0047359 -0.0026226
194 1 9.5276156 9.5260763 15.6094628 0.0025368 0.0052824 -0.0014992
195 1 9.4810457 7.5182481 1.3988197 0.0019474 0.0023255 -0.0028117
196 1 7.496512 9.5018139 1.3862394 0.0018969 0.00488 -0.0033723
197 1 11.5510197 7.486434 15.6134558 0.0044737 0.0059781 -0.0012245
198 1 13.577405 9.5172215 15.6168003 0.0026436 0.0047979 -0.0027914
199 1 13.5512877 7.482543 1.440427 0.0037642 0.0054855 -0.0052526
200 1 11.5461273 9.5084152 1.4234057 -4.3773651e-04 0.0045109 -0.0023086
201 1 7.4860015 11.5494013 15.5924225 0.003047 0.0050879 -0.0019569
202 1 9.5204773 13.5800381 15.603571 0.0023527 0.0039244 9.2887879e-04
203 1 9.5122519 11.5515318 1.4073123 0.0013371 0.0019321 9.1350079e-04
204 1 7.4824801 13.5542832 1.4042462 0.0036488 0.005374 0.0016915
205 1 11.5541001 11.5511656 15.6116915 0.0019283 0.0034122 -0.0020733
206 1 13.575305 13.5774451 15.6068316 0.0028553 0.0015678 -0.002429
207 1 13.5705261 11.5417891 1.4278263 0.0013599 0.0024395 -0.00191
208 1 11.5443173 13.5702963 1.4218375 0.0013523 8.1443787e-04 -2.3210049e-04
209 1 7.4667654 7.4715023 3.3981135 -0.015286 0.0059729 -0.008121
210 1 9.4847555 9.535842 3.4055064 -0.0075321 -0.0034142 0.0055368
211 1 9.576457 7.5766201 5.4477196 -0.038991 -0.0416327 -0.0128965
212 1 7.4454432 9.4408779 5.542882 -0.0120921 -0.0167465 0.0091548
213 1 11.4897537 7.4679623 3.484488 -0.0078678 0.0062776 -0.0184743
214 1 13.5511294 9.5101643 3.4425869 -0.0015726 0.0033035 -0.0028627
215 1 13.5387249 7.499126 5.4744101 -0.00212 0.0043349 -0.0099726
216 1 11.5236912 9.5202055 5.4386869 -0.0149364 -0.0201054 -0.0015373
217 1 7.4894686 11.5264445 3.4494353 0.0021615 0.0030022 3.7193299e-04
218 1 9.5169125 13.5348444 3.43839 0.0026388 -0.0014229 0.002506
219 1 9.4622078 11.4993572 5.461998 -0.0013628 -0.0109758 0.0035481
220 1 7.477921 13.5154076 5.4725013 0.0039673 0.0019817 0.0021114
221 1 11.5356083 11.5468817 3.4418769 -0.0011644 -0.003746 0.0012865
222 1 13.5636788 13.5683804 3.4467807 0.0035124 -0.0040321 -0.0014584
223 1 13.5370083 11.5400439 5.4737211 -0.003768 -0.0064163 -0.0011549
224 1 11.532548 13.5434065 5.4649349 0.0014019 -0.0075626 0.0018997
225 1 7.877986 7.3689914 7.2704783 -0.0043259 -0.0712237 0.0183148
226 1 9.3692064 9.4714852 7.3397184 -0.0218353 -0.0431185 -0.0186911
227 1 9.44102 7.464571 9.7138872 0.0052576 -0.0595808 -0.0149841
228 1 7.6318784 9.8193541 9.8039541 -0.0014758 -0.0191126 -0.0058222
229 1 11.548914 7.5177794 7.5404411 -0.0234632 -0.042706 -0.0185304
230 1 13.5139265 9.5196839 7.5165801 -0.0116577 -0.0079927 -0.0045447
231 1 13.5353852 7.5220609 9.5302916 -0.0028257 -9.4079971e-04 -0.0095911
232 1 11.4889794 9.5770378 9.5417052 -0.0111771 -0.0248413 -0.0172787
233 1 7.4982529 11.4614363 7.521883 0.0091872 -0.0066509 0.0020423
234 1 9.512991 13.5491534 7.4870177 0.0026598 -0.0042868 0.0015855
235 1 9.5609665 11.6123371 9.4937849 3.3092499e-04 -0.0143833 -0.0027876
236 1 7.5013466 13.5650816 9.5416222 0.0054841 0.0027466 -0.0027056
237 1 11.5051136 11.5412913 7.5056529 -0.004283 -0.0140076 -0.0022221
238 1 13.5538893 13.5827198 7.4946246 0.0017052 -0.004776 -8.8596344e-04
239 1 13.5473118 11.5752297 9.5320206 -0.0043888 -0.0052042 -0.0036688
240 1 11.5554295 13.5874129 9.5299225 -8.802414e-04 -0.0056324 -7.4005127e-04
241 1 7.5367594 7.5105233 11.7049456 0.0052056 0.0075426 0.0026493
242 1 9.5844345 9.5116167 11.639226 0.0029936 -0.005476 -0.0080023
243 1 9.5488081 7.4798818 13.6241436 0.0051413 0.0075097 0.0027676
244 1 7.5048518 9.5390558 13.6103316 0.003644 0.0045815 -0.0025215